2304
Atoms. Timestep: 0
O 0.00208061 26.0349 0.0150803
H 38.6627 25.4727 0.593984
H 0.547357 0.542447 0.605352
O 3.29488 3.23478 0.00620895
H 3.89883 2.68471 25.5935
H 3.86282 3.80547 0.559433
O 3.29928 0.0166185 3.25079
H 3.83563 25.4969 2.66282
H 2.7295 0.559569 2.67228
O 39.1985 3.28146 3.26006
H 38.6108 2.73316 3.81565
H 38.6154 3.83197 2.70373
O 1.62802 1.63633 1.64255
H 1.07712 2.22603 2.19284
H 2.18413 2.21371 1.0847
O 4.89575 4.90655 1.63581
H 5.47654 4.37464 2.21388
H 4.3426 5.45071 2.22939
O 4.92066 1.63284 4.86654
H 5.47691 2.20206 4.30059
H 4.37744 1.09099 4.26008
O 1.65533 4.86643 4.90927
H 1.08363 4.30715 4.3482
H 2.19903 4.25876 5.44783
O 6.55814 26.0306 0.0240305
H 6.00307 25.4795 0.609425
H 7.11932 0.527642 0.608544
O 9.8045 3.26189 26.1168
H 9.22933 3.78884 25.5287
H 10.3617 2.70876 25.5357
O 9.79951 26.044 3.29594
H 9.24103 25.4896 3.87506
H 10.3718 0.52295 3.88685
O 6.56404 3.29248 3.25397
H 7.15509 3.82804 3.81886
H 7.14972 2.74285 2.69694
O 8.19338 1.63573 1.64858
H 8.77771 1.09314 2.21281
H 8.77812 2.1714 1.07729
O 11.4041 4.88935 1.64728
H 10.8151 5.43569 2.20262
H 10.8244 4.3552 1.0698
O 11.4627 1.60444 4.92849
H 12.0215 2.15974 4.35059
H 12.0764 1.07198 5.47162
O 8.2064 4.87262 4.91496
H 8.78062 5.45467 4.37967
H 8.80001 4.31626 5.45589
O 13.0834 26.0255 0.0263514
H 13.6231 25.4402 25.5831
H 12.5228 25.4411 0.572199
O 16.3223 3.23987 26.1031
H 15.7151 3.78187 25.5622
H 15.7555 2.67402 0.539761
O 16.3835 26.0277 3.26373
H 16.956 0.543786 3.81884
H 16.981 25.4763 2.72281
O 13.0495 3.23585 3.24542
H 12.4795 3.77464 2.66398
H 13.61 2.68919 2.66164
O 14.7157 1.60841 1.63189
H 15.2882 1.04285 2.18477
H 14.1704 1.00214 1.09269
O 17.9743 4.85865 1.61766
H 17.4147 4.32016 1.02539
H 18.5066 5.44271 1.04232
O 17.9923 1.65417 4.89075
H 18.5379 2.23769 4.32869
H 17.4179 2.23885 5.42228
O 14.6666 4.86994 4.8785
H 14.077 4.32725 4.31924
H 14.0868 5.43252 5.4278
O 19.6204 26.0112 26.0993
H 19.0325 0.519775 25.553
H 19.0392 25.4595 0.534426
O 22.9005 3.25733 26.1157
H 23.4856 2.70725 25.5601
H 23.4846 3.80563 0.550334
O 22.8412 26.043 3.26601
H 22.2546 25.5074 3.83443
H 22.2585 0.528676 2.69098
O 19.6363 3.26331 3.23856
H 19.0837 3.81387 2.64988
H 20.1773 2.70086 2.65116
O 21.2458 1.61226 1.59601
H 21.8195 2.15351 1.01938
H 20.6963 1.06127 1.00524
O 24.5223 4.90699 1.63497
H 23.9623 5.47233 2.20101
H 25.0608 5.51672 1.09247
O 24.4884 1.63994 4.85752
H 25.0462 2.19046 4.27478
H 23.9206 1.10061 4.27349
O 21.2406 4.88363 4.90648
H 20.71 4.29976 4.33
H 21.7834 4.29861 5.46902
O 26.1452 26.0264 0.0410314
H 25.5927 25.4786 0.631784
H 26.693 0.539121 0.62598
O 29.422 3.2429 0.0224676
H 29.9604 2.66281 25.5742
H 28.8808 2.65178 0.580769
O 29.4263 0.00941073 3.30837
H 30.013 0.573261 3.84913
H 30.013 25.51 2.75028
O 26.1533 3.27069 3.25132
H 26.7114 3.8469 3.80879
H 25.6168 3.86771 2.69336
O 27.7819 1.60678 1.65638
H 27.2381 2.18344 2.2283
H 28.3379 1.06863 2.25326
O 31.0576 4.92069 1.61428
H 30.5071 4.34089 1.05286
H 31.5998 5.45806 1.0042
O 31.0625 1.65729 4.91749
H 31.5919 2.27125 4.37178
H 30.4943 2.21609 5.48335
O 27.7974 4.90332 4.87955
H 28.3995 5.44731 4.33518
H 28.3662 4.3523 5.45153
O 32.665 26.047 26.1131
H 33.2261 25.5075 25.5228
H 32.1015 0.539489 25.5251
O 35.9071 3.24108 26.1117
H 35.3303 3.77988 25.5362
H 35.3105 2.71294 0.5535
O 35.9501 0.0356433 3.24471
H 36.4958 0.629135 3.79663
H 35.3701 0.611758 2.71021
O 32.6549 3.30282 3.28866
H 33.2383 3.87438 3.82527
H 32.1244 3.89855 2.72438
O 34.2637 1.64102 1.64537
H 33.6748 2.18971 2.19827
H 33.6847 1.08086 1.0924
O 37.5685 4.89663 1.58073
H 37.0089 4.34723 0.99896
H 38.1374 5.43373 0.995316
O 37.563 1.66171 4.89742
H 37.0213 2.19956 5.50803
H 38.1119 1.08145 5.45993
O 34.3388 4.90068 4.89469
H 34.9351 5.43318 4.33282
H 34.9106 4.34827 5.46144
O 0.0363864 6.50704 26.0967
H 0.632228 5.94453 25.5648
H 0.60907 7.04771 0.550626
O 3.23305 9.76487 26.1221
H 3.77572 10.3387 0.573301
H 2.69708 9.20919 0.59765
O 3.274 6.52525 3.29655
H 2.73005 5.95926 3.87821
H 3.82566 7.075 3.88719
O 39.1991 9.75564 3.29876
H 0.527528 10.3039 3.90085
H 38.633 9.20276 3.87115
O 1.6366 8.13314 1.65429
H 1.07326 8.67527 2.23999
H 2.19152 7.58695 2.2452
O 4.85718 11.4117 1.63086
H 4.30282 11.9877 2.19294
H 5.40442 12.0087 1.08447
O 4.91881 8.15275 4.92312
H 5.49585 8.68397 4.34143
H 5.50883 7.59038 5.46225
O 1.60139 11.3867 4.92641
H 2.18867 10.855 5.49843
H 1.0634 11.9437 5.5224
O 6.51364 6.49732 26.0741
H 5.9267 7.05903 25.5314
H 5.92973 5.97165 0.531296
O 9.80578 9.77153 26.1154
H 10.3784 9.22013 25.5479
H 10.4072 10.3094 0.543261
O 9.78191 6.54103 3.2832
H 10.3565 7.13372 3.80597
H 9.21869 7.11513 2.7302
O 6.5155 9.75804 3.2197
H 5.94449 10.3144 2.65497
H 7.05364 9.21222 2.61312
O 8.14398 8.13886 1.59139
H 8.71139 8.68387 1.01187
H 7.60869 7.57409 1.00077
O 11.4554 11.3914 1.59961
H 12.0382 10.8511 2.16776
H 12.0487 11.947 1.05633
O 11.4523 8.1727 4.86539
H 12.0578 8.71532 4.32409
H 12.0194 7.61741 5.43477
O 8.15604 11.3894 4.83184
H 7.60397 10.8395 4.24149
H 8.70158 11.951 4.24698
O 13.0603 6.52138 0.0341161
H 12.5042 5.98554 0.632227
H 13.6278 7.07617 0.602897
O 16.3558 9.81355 0.00782952
H 15.7941 10.385 25.5725
H 16.8938 10.4113 0.562409
O 16.3414 6.47306 3.26364
H 15.7694 5.89535 3.80525
H 16.9007 5.88179 2.72345
O 13.1129 9.78867 3.25415
H 13.6871 10.3535 3.80799
H 13.7123 9.23721 2.71402
O 14.7414 8.14745 1.6336
H 15.3296 7.58097 2.16967
H 15.3212 8.69975 1.07435
O 17.9905 11.4445 1.65416
H 18.5673 10.8655 2.18925
H 18.5846 11.9812 1.09376
O 17.9422 8.14081 4.87402
H 17.3618 7.56874 4.33456
H 17.3504 8.68505 5.42938
O 14.7129 11.4318 4.90893
H 15.2789 12.0228 4.37639
H 14.1393 12.0068 5.45149
O 19.5959 6.53147 0.0361644
H 19.0637 7.13247 25.6022
H 20.1493 7.10334 0.602637
O 22.8599 9.76508 26.1188
H 22.2958 10.3081 25.5342
H 23.4272 9.23143 25.5291
O 22.8881 6.52701 3.30379
H 22.3341 5.96474 3.87939
H 23.4315 7.08118 3.89662
O 19.5907 9.77686 3.27757
H 19.015 9.19131 3.80723
H 20.162 9.19243 2.74266
O 21.2471 8.14949 1.67002
H 21.8344 7.59683 2.22125
H 21.8292 8.69504 1.10691
O 24.4794 11.4099 1.63129
H 23.8936 11.951 2.19662
H 23.8941 10.8588 1.07656
O 24.5217 8.17766 4.92086
H 25.059 8.76327 4.35278
H 23.9677 8.7602 5.47504
O 21.2136 11.4172 4.90832
H 20.6284 10.8547 4.36379
H 20.6245 11.974 5.45468
O 26.1371 6.55587 0.0357912
H 25.6018 7.13182 25.5803
H 26.6959 7.14797 0.576401
O 29.4332 9.77989 26.0845
H 28.8672 10.3379 25.5153
H 29.966 9.2252 25.4825
O 29.4308 6.53466 3.26284
H 30.0187 7.08517 3.81637
H 30.0144 5.99334 2.69589
O 26.1314 9.80303 3.25597
H 25.5713 10.3445 2.66575
H 26.6898 9.24996 2.676
O 27.7937 8.18602 1.63633
H 28.3729 7.62802 2.19072
H 28.3856 8.7223 1.07438
O 31.0586 11.3981 1.60338
H 30.5171 10.851 1.00092
H 31.6096 11.9684 1.03183
O 31.0635 8.15964 4.90711
H 31.6042 8.75252 4.34925
H 30.5002 8.73374 5.46039
O 27.7749 11.4104 4.88397
H 27.2185 10.8673 4.29078
H 28.3482 11.9447 4.29997
O 32.6681 6.51108 26.0668
H 33.2128 5.94995 25.4798
H 32.117 7.06269 25.4774
O 35.9634 9.74232 26.1115
H 36.5524 9.19955 25.552
H 36.5506 10.2857 0.548252
O 35.9567 6.50442 3.2365
H 36.5024 5.96837 2.62777
H 35.3842 7.05764 2.67039
O 32.6814 9.76333 3.24987
H 32.1375 10.3248 2.66465
H 33.218 9.19734 2.66044
O 34.2911 8.1251 1.60766
H 34.8619 8.66896 1.0299
H 33.7441 7.57801 1.0111
O 37.5991 11.3779 1.6234
H 38.1838 10.8376 2.18941
H 38.1828 11.9338 1.07189
O 37.5647 8.09013 4.92083
H 37.0285 7.51694 4.33842
H 38.1252 7.49714 5.45759
O 34.341 11.3581 4.88878
H 33.7757 10.79 4.3294
H 34.8845 10.7545 5.43233
O 0.00200957 13.0253 26.0922
H 0.548311 12.4734 25.5003
H 38.6382 13.5612 25.5127
O 3.25284 16.2766 0.0234199
H 3.84234 16.8062 0.595659
H 2.70679 15.7282 0.619747
O 3.23014 13.0317 3.27488
H 2.65277 12.4703 3.827
H 2.63297 13.5824 2.7316
O 39.1873 16.2996 3.25296
H 0.53755 16.8577 3.82505
H 38.6489 16.912 2.71415
O 1.60244 14.65 1.64556
H 1.00687 15.2124 2.17823
H 1.03077 14.1136 1.06277
O 4.92947 17.8822 1.61766
H 5.5282 17.3559 2.18249
H 5.50202 18.4447 1.06199
O 4.92568 14.6537 4.88435
H 4.34681 14.0902 4.33616
H 5.46529 14.0481 5.42878
O 1.62659 17.8851 4.91192
H 2.18385 17.338 5.49827
H 1.07838 18.4446 5.49504
O 6.49588 13.0447 0.0126459
H 5.94286 13.6091 25.5614
H 7.042 13.6527 0.5491
O 9.77672 16.2996 26.0907
H 9.24187 16.8556 25.4913
H 10.3537 15.7518 25.5237
O 9.78138 13.0168 3.19692
H 10.3428 12.4684 2.61495
H 9.23526 13.5746 2.60969
O 6.57621 16.3072 3.28325
H 7.10999 16.8544 3.89171
H 6.01834 15.7357 3.84583
O 8.14685 14.6818 1.5949
H 7.63157 15.2689 2.18227
H 8.69354 15.2658 1.0335
O 11.3903 17.9123 1.62754
H 10.8184 18.4452 2.21351
H 10.795 17.3725 1.07158
O 11.4018 14.6313 4.8714
H 11.9623 15.1874 4.29659
H 10.8552 14.0867 4.2721
O 8.1775 17.9237 4.95553
H 8.72665 17.3588 5.53454
H 7.63273 18.4743 5.55137
O 13.1026 13.0344 26.1233
H 13.6808 12.4906 25.5522
H 13.7003 13.5743 0.553419
O 16.3314 16.3022 0.00560158
H 15.7611 16.8894 25.5956
H 16.9088 16.8833 0.536824
O 16.3682 13.064 3.29202
H 16.9496 13.6274 3.83943
H 16.9612 12.5074 2.74975
O 13.0396 16.265 3.2325
H 12.4841 16.812 2.64339
H 13.6033 15.7173 2.65212
O 14.7297 14.6511 1.63192
H 15.321 14.1174 2.19843
H 15.312 15.2196 1.08993
O 17.9966 17.9298 1.6158
H 18.5817 17.3855 2.17704
H 18.5832 18.4895 1.07111
O 17.9808 14.71 4.92505
H 18.5437 15.2899 4.37668
H 17.4119 15.2966 5.46023
O 14.6653 17.9007 4.86053
H 14.1146 17.3528 4.26783
H 15.2248 18.4526 4.28012
O 19.609 13.0378 26.106
H 20.1463 12.4795 25.5108
H 19.028 13.5736 25.5312
O 22.8747 16.3011 26.0976
H 22.3134 16.8904 25.5572
H 23.4329 16.8801 0.528317
O 22.8466 13.0371 3.26313
H 22.2543 12.4933 3.81783
H 22.2664 13.5805 2.69392
O 19.63 16.3075 3.27146
H 20.2321 16.8326 3.83363
H 20.1976 15.7397 2.71501
O 21.2337 14.6598 1.61015
H 21.7991 15.2085 1.03355
H 20.6797 14.1193 1.01344
O 24.5295 17.9035 1.6105
H 25.1061 17.3432 2.16587
H 25.1282 18.461 1.07578
O 24.4868 14.6617 4.87531
H 23.889 14.1212 4.32215
H 23.9139 15.1993 5.45529
O 21.2747 17.8952 4.9359
H 21.8187 17.3577 5.54409
H 20.6948 18.4436 5.49879
O 26.1156 13.0291 26.122
H 25.5358 13.5854 25.5664
H 25.522 12.4767 0.544237
O 29.4301 16.2381 0.0031705
H 29.9735 15.6557 25.5617
H 28.8533 15.6545 0.533479
O 29.4304 13.0074 3.24901
H 29.9785 12.4602 2.65312
H 28.8708 13.5617 2.67025
O 26.1474 16.2656 3.25732
H 26.7157 16.8016 3.8427
H 25.572 15.7328 3.84041
O 27.7695 14.6208 1.61748
H 27.2022 15.1777 2.18511
H 27.1607 14.0787 1.07744
O 31.0396 17.8767 1.6369
H 31.5987 17.3092 2.20144
H 30.4907 17.2731 1.09954
O 31.0394 14.6088 4.93929
H 30.5062 14.0335 4.35762
H 31.6077 14.0167 5.47024
O 27.807 17.8764 4.90031
H 28.3887 18.439 4.35364
H 28.3978 17.3234 5.44806
O 32.6961 13.0545 0.0127159
H 32.1585 13.6319 25.5599
H 33.2274 13.6447 0.581233
O 35.94 16.2716 0.0434405
H 36.5058 16.831 0.609778
H 35.3962 15.7325 0.65043
O 35.9492 13.003 3.26676
H 35.4152 12.4014 3.82226
H 36.5022 12.4314 2.69996
O 32.6672 16.2784 3.3273
H 33.2193 16.8427 3.9027
H 32.1185 15.7292 3.91987
O 34.3049 14.6668 1.68672
H 33.7581 15.2041 2.29278
H 34.8485 14.0826 2.2513
O 37.5734 17.9447 1.64606
H 37.0177 18.5356 2.19258
H 38.1133 18.5301 1.07962
O 37.574 14.6637 4.8893
H 38.1094 15.2183 4.28899
H 37.0226 14.0944 4.31836
O 34.3171 17.9241 4.9275
H 34.8862 18.4838 4.36488
H 34.9195 17.3818 5.4725
O 39.2053 19.5773 0.0208826
H 38.6681 20.1739 25.5865
H 0.54032 20.1548 0.588403
O 3.2545 22.7752 26.123
H 2.67986 23.3492 25.5789
H 2.66234 22.2457 0.567102
O 3.262 19.4938 3.2578
H 2.71288 18.9047 3.81135
H 3.81021 18.9158 2.69271
O 39.2121 22.8284 3.30445
H 0.555873 23.4276 3.83956
H 38.6561 23.3969 2.73661
O 1.62012 21.1823 1.67617
H 1.07994 21.7315 2.27676
H 2.17394 20.6112 2.24227
O 4.91331 24.4015 1.63822
H 5.45541 23.8099 2.19623
H 4.36566 23.8216 1.07526
O 4.90756 21.1241 4.88333
H 4.36422 20.5201 4.34023
H 5.46294 20.559 5.45455
O 1.65686 24.4564 4.91688
H 2.24423 25.0112 4.36937
H 2.23997 23.8789 5.44735
O 6.5498 19.5466 26.1045
H 5.97458 20.1259 25.5685
H 7.10278 20.1331 0.532375
O 9.80521 22.7881 26.0915
H 9.22356 23.3196 25.5136
H 10.3645 22.2537 25.4941
O 9.80322 19.5348 3.30594
H 9.24062 18.9949 3.89515
H 10.3604 20.082 3.89328
O 6.53805 22.7681 3.26279
H 5.98838 22.1701 3.80601
H 7.10454 22.1943 2.71042
O 8.20041 21.156 1.62958
H 8.77976 20.6049 2.19016
H 8.789 21.7041 1.0757
O 11.4064 24.3995 1.63831
H 10.8235 24.9588 2.1874
H 10.8218 23.8651 1.0662
O 11.4353 21.1694 4.94789
H 10.8876 21.7156 5.54547
H 11.9959 20.6141 5.5238
O 8.16071 24.4001 4.90477
H 7.61775 23.8087 4.34816
H 8.7052 23.8211 5.47285
O 13.0142 19.5515 0.000409004
H 12.4428 20.1045 25.5559
H 12.4141 19.0098 0.549323
O 16.3108 22.791 0.0267113
H 15.7319 23.3456 25.5922
H 15.7139 22.2336 0.563785
O 16.3112 19.5332 3.2329
H 16.8888 18.9996 2.65363
H 15.7585 20.0834 2.64392
O 13.0429 22.7856 3.27564
H 12.4754 22.2447 3.85906
H 12.4373 23.3226 2.72827
O 14.6623 21.163 1.62386
H 14.0808 21.7038 2.19378
H 14.0676 20.6159 1.07394
O 18.011 24.3825 1.62858
H 18.563 23.7958 2.17995
H 17.4265 23.8034 1.10218
O 17.9421 21.1297 4.89646
H 17.3632 20.5956 4.3176
H 17.3453 21.6791 5.44257
O 14.711 24.4109 4.87929
H 14.1399 23.8784 4.29231
H 15.2855 24.9461 4.29816
O 19.6278 19.5768 26.1166
H 19.063 20.1732 25.5873
H 20.1852 20.1515 0.552682
O 22.8884 22.7707 0.045325
H 23.445 23.3232 0.628715
H 22.3341 22.226 0.639397
O 22.8817 19.5048 3.2633
H 22.3441 18.9154 3.82709
H 23.4306 18.9283 2.69716
O 19.6218 22.7604 3.30744
H 20.1476 23.3318 3.90087
H 19.0536 22.2139 3.88468
O 21.2543 21.1661 1.66927
H 20.7088 21.703 2.27758
H 21.7995 20.5846 2.23472
O 24.5111 24.4055 1.6828
H 25.0586 23.8568 2.27916
H 23.9404 24.9522 2.25796
O 24.5157 21.1294 4.91549
H 23.974 20.5509 4.34382
H 25.064 20.5331 5.46214
O 21.2206 24.4278 4.92916
H 21.7853 23.8729 5.50104
H 20.6857 24.9897 5.52321
O 26.1837 19.5452 0.0206147
H 26.7797 19.0074 25.5875
H 26.761 20.1037 0.577271
O 29.4187 22.8251 0.0257834
H 29.9767 23.3712 0.613766
H 28.8726 22.2676 0.614064
O 29.4356 19.5367 3.27402
H 30.0327 20.0845 3.81945
H 30.0074 18.982 2.70833
O 26.1428 22.7909 3.31196
H 26.6875 23.3531 3.89673
H 25.5977 22.2286 3.89633
O 27.7973 21.1865 1.66239
H 27.2338 21.723 2.25293
H 28.3533 20.6312 2.24325
O 31.061 24.441 1.66801
H 31.6503 23.8905 2.21888
H 31.6403 24.9743 1.08926
O 31.0668 21.171 4.91791
H 30.4862 21.7107 5.48916
H 31.599 20.61 5.51589
O 27.7648 24.4448 4.93304
H 28.3363 25.0154 4.38361
H 27.2131 25.0425 5.47396
O 32.6474 19.5214 26.1234
H 32.071 20.0807 25.5683
H 32.0576 18.9595 0.539022
O 35.9142 22.8166 0.00547504
H 35.3296 23.3602 25.5658
H 35.3248 22.248 0.537978
O 35.9374 19.5621 3.26617
H 36.478 20.1685 3.80971
H 35.3666 20.1271 2.70968
O 32.6902 22.791 3.28926
H 33.2745 23.328 3.85847
H 32.1383 22.2542 3.89118
O 34.28 21.1606 1.61981
H 33.6983 21.7022 2.18841
H 33.6894 20.5963 1.08358
O 37.5685 24.4185 1.64254
H 36.9861 24.9928 2.17736
H 36.9768 23.87 1.09184
O 37.5555 21.1877 4.90025
H 38.1242 21.7816 4.37279
H 37.0182 21.7665 5.47627
O 34.359 24.4199 4.88451
H 34.9406 24.9723 4.32699
H 34.9448 23.891 5.46053
O 39.1766 26.046 6.52213
H 0.545405 25.4761 5.98178
H 38.642 25.4485 7.07929
O 3.27419 3.2215 6.52684
H 3.82483 2.63741 5.97042
H 2.70964 2.63934 7.07171
O 3.28078 0.00088882 9.78484
H 3.81407 25.4896 9.18587
H 2.72123 0.557974 9.21025
O 0.002302 3.25171 9.82735
H 0.571028 3.78696 10.4143
H 38.6545 2.70585 10.4131
O 1.60517 1.62272 8.1557
H 1.03434 2.17536 8.72399
H 1.00482 1.07542 7.61283
O 4.90434 4.86923 8.14796
H 5.44411 4.29679 8.72754
H 4.35595 4.2703 7.60523
O 4.93404 1.58807 11.443
H 4.3852 1.01495 10.8739
H 5.47512 0.996518 12.0012
O 1.65975 4.86632 11.4589
H 2.22983 5.4056 10.8766
H 2.25915 4.31392 11.9975
O 6.51292 26.0402 6.50819
H 7.07693 25.4817 5.93774
H 5.97624 0.542665 5.90428
O 9.82168 3.22969 6.54769
H 10.3934 2.64371 6.01432
H 9.24888 2.64702 7.08252
O 9.78773 0.00360618 9.78041
H 9.21359 25.4944 10.3415
H 9.18533 0.541791 9.23029
O 6.53201 3.25447 9.80856
H 7.08502 3.82126 10.3805
H 6.00325 2.6924 10.4069
O 8.13987 1.61455 8.15297
H 7.565 2.17873 8.70601
H 7.54584 1.07501 7.59575
O 11.4148 4.89625 8.16145
H 10.8231 5.44882 8.70718
H 10.8379 4.32144 7.62117
O 11.453 1.62045 11.3981
H 11.9986 2.18306 10.8145
H 10.8887 1.0785 10.8131
O 8.1704 4.90249 11.4244
H 8.70869 5.49336 10.863
H 7.62767 5.48748 11.9878
O 13.1218 0.0105309 6.54247
H 13.699 25.5019 5.98419
H 13.7125 0.554017 7.09945
O 16.3326 3.28385 6.50715
H 15.7164 3.81146 5.96225
H 15.7782 2.72294 7.08289
O 16.3747 26.0241 9.78795
H 15.8299 25.4333 10.3435
H 16.9088 25.4421 9.21204
O 13.0767 3.282 9.78256
H 13.6094 3.88551 10.3362
H 12.5141 3.8538 9.22444
O 14.7429 1.64285 8.18536
H 14.1835 2.19519 8.76475
H 15.2925 1.08936 8.77258
O 17.9659 4.92644 8.14398
H 17.4002 4.37166 7.57255
H 18.5137 5.46604 7.54023
O 17.9766 1.63612 11.4099
H 18.5367 2.19375 10.8359
H 17.4508 1.06646 10.8152
O 14.6885 4.93307 11.4019
H 15.2526 5.52365 10.8657
H 14.1505 5.51036 11.9775
O 19.5965 0.0316184 6.54468
H 19.0591 0.622798 5.98137
H 20.1326 0.615481 7.1154
O 22.8755 3.24364 6.55288
H 23.4467 2.69332 5.98338
H 23.4775 3.80144 7.0836
O 22.8368 26.0039 9.79426
H 22.2485 25.4667 10.3602
H 22.2532 0.537149 9.26855
O 19.5944 3.31328 9.80574
H 20.1386 3.90189 10.3642
H 19.0458 3.89468 9.24457
O 21.2169 1.64969 8.20569
H 20.6785 2.25902 8.74795
H 21.799 2.21267 7.65933
O 24.5254 4.88837 8.12843
H 25.0982 4.35701 8.71545
H 25.1209 5.43006 7.57476
O 24.4964 1.58195 11.4179
H 23.9517 0.991659 10.8617
H 25.0623 1.00348 11.9651
O 21.2524 4.93713 11.4279
H 21.8445 5.46377 10.8554
H 21.8296 4.34779 11.9515
O 26.0996 0.034752 6.52563
H 25.5222 0.571032 5.94785
H 25.5045 25.5197 7.05963
O 29.4013 3.26473 6.54333
H 29.959 3.79351 7.1461
H 28.8214 2.71997 7.10924
O 29.4158 0.0328603 9.73513
H 29.9688 25.5391 9.13797
H 28.8408 0.575404 9.1604
O 26.1069 3.27903 9.81896
H 26.6691 3.81644 10.4099
H 25.551 2.72099 10.3956
O 27.7254 1.65135 8.14817
H 27.1517 2.19224 8.72416
H 27.1266 1.11143 7.59548
O 31.0648 4.86708 8.16741
H 31.6606 4.32998 8.7257
H 31.6403 5.40454 7.58987
O 31.0125 1.63 11.4204
H 31.5849 2.19123 10.8619
H 30.4738 1.09499 10.8057
O 27.7767 4.88861 11.4393
H 28.3625 5.41766 10.8632
H 28.3619 4.32575 11.9836
O 32.6995 26.0428 6.51069
H 33.2604 25.5065 5.91771
H 32.1625 0.57422 5.93524
O 35.9492 3.26896 6.56448
H 36.5079 3.81168 7.15427
H 35.3956 2.71274 7.14613
O 35.9644 26.0334 9.82465
H 35.399 25.4895 10.407
H 36.5027 0.550127 10.4139
O 32.6882 3.25484 9.81508
H 33.2653 3.80472 10.3796
H 33.2806 2.6923 9.27897
O 34.328 1.61272 8.19567
H 34.8816 1.02032 8.74082
H 33.7783 1.03625 7.63197
O 37.5956 4.88503 8.1957
H 38.1697 4.33976 8.76931
H 38.1953 5.42087 7.64121
O 37.5699 1.63253 11.4534
H 37.0171 2.19921 12.0268
H 38.1198 1.09104 12.0531
O 34.3061 4.9029 11.4482
H 34.8506 5.49084 10.8891
H 33.746 5.48273 12.0003
O 0.0241464 6.48554 6.54512
H 0.617103 5.93276 5.99954
H 0.603637 7.06925 7.07284
O 3.29213 9.79834 6.52637
H 3.88092 9.24403 5.97729
H 3.87725 10.3422 7.08865
O 3.26236 6.49214 9.7798
H 3.82051 5.95041 9.18851
H 2.71109 7.05064 9.19908
O 0.00296558 9.78092 9.78404
H 38.6421 9.20971 10.3314
H 38.6184 10.3186 9.22767
O 1.64868 8.1574 8.14047
H 1.09259 8.73629 8.69667
H 2.20628 8.74856 7.59842
O 4.93317 11.3973 8.18214
H 5.46887 10.8352 8.77481
H 4.37172 11.9483 8.76239
O 4.88126 8.11517 11.4464
H 4.29771 7.56018 10.8935
H 4.29693 8.69659 11.9709
O 1.61593 11.4408 11.4074
H 1.04109 10.8762 10.8546
H 1.01521 11.9773 11.9606
O 6.54523 6.49458 6.5318
H 7.10669 5.90578 5.99141
H 5.9872 5.90901 7.08035
O 9.76431 9.7777 6.47732
H 9.22578 10.3254 5.87245
H 10.3502 9.24164 5.9079
O 9.79053 6.55271 9.78636
H 10.3557 7.12363 10.3419
H 9.25595 7.1495 9.22742
O 6.5313 9.74019 9.82433
H 5.97883 9.13746 10.359
H 7.08325 9.17714 9.24728
O 8.15767 8.16983 8.14155
H 8.68816 8.72208 7.5343
H 7.61303 7.58862 7.57506
O 11.3797 11.3782 8.15524
H 10.7967 11.9169 8.72487
H 10.7913 10.8407 7.58977
O 11.4338 8.15822 11.4495
H 10.8712 8.6982 12.0381
H 11.9862 7.60486 12.0349
O 8.13971 11.3795 11.4637
H 7.56747 10.8209 10.9026
H 7.54062 11.9207 12.015
O 13.0536 6.51885 6.5183
H 12.4818 5.97366 7.09295
H 13.6137 7.04974 7.11762
O 16.3129 9.74673 6.52043
H 15.7395 10.3331 5.98934
H 15.7154 9.20859 7.07557
O 16.3613 6.56099 9.80419
H 16.9613 7.09394 10.3609
H 16.9326 6.01107 9.23384
O 13.0392 9.77463 9.7802
H 12.4682 9.23597 10.3621
H 12.4391 10.3048 9.22016
O 14.6775 8.1372 8.16852
H 14.1172 8.6864 8.75121
H 15.2594 7.61739 8.75627
O 17.9975 11.3443 8.13299
H 18.5494 10.7679 8.69594
H 17.4323 10.7554 7.59639
O 17.9959 8.15089 11.47
H 17.4105 8.67802 12.0485
H 18.5497 7.60414 12.0606
O 14.7025 11.3858 11.391
H 14.1269 10.8602 10.8016
H 15.2775 11.9201 10.8095
O 19.5948 6.53477 6.50428
H 20.1525 5.97752 5.92739
H 19.0405 7.08058 5.91274
O 22.8603 9.79696 6.54392
H 22.2671 10.3475 5.99678
H 22.279 9.24019 7.09869
O 22.8896 6.51203 9.75583
H 23.4403 5.97022 9.15811
H 22.3269 7.06723 9.18173
O 19.6163 9.76021 9.82506
H 20.1811 10.3232 10.389
H 19.0676 9.22895 10.4348
O 21.2324 8.14853 8.1566
H 20.6528 8.67684 8.73937
H 20.6415 7.60473 7.60064
O 24.5197 11.4097 8.15419
H 23.9511 10.8627 7.5772
H 25.0781 11.945 7.55695
O 24.4775 8.12208 11.449
H 23.9472 7.53525 10.8751
H 25.0564 7.54374 11.9828
O 21.2798 11.396 11.4479
H 21.8689 11.9331 10.8828
H 21.8606 10.8351 11.9972
O 26.1639 6.52226 6.51104
H 26.7277 5.98887 5.91718
H 25.6082 7.08292 5.93598
O 29.403 9.78818 6.53832
H 28.8138 10.3322 5.98073
H 28.82 9.23995 7.09816
O 29.4151 6.48835 9.78474
H 29.9743 5.95084 9.19113
H 28.8586 7.04982 9.21146
O 26.1137 9.76724 9.81251
H 25.5234 9.22891 10.3742
H 25.5342 10.3226 9.25552
O 27.7734 8.14767 8.17892
H 27.1785 8.68056 8.74113
H 27.195 7.59828 7.61412
O 31.0335 11.4096 8.16534
H 30.4783 10.8623 7.57545
H 31.6146 11.9382 7.58475
O 31.0196 8.12277 11.4305
H 30.4779 7.52928 10.8746
H 31.5729 7.5468 11.9935
O 27.7798 11.3738 11.4222
H 27.2126 10.828 10.8427
H 28.3195 11.9315 10.8288
O 32.6814 6.4998 6.51654
H 33.255 5.97182 5.92718
H 32.1295 7.05954 5.93659
O 35.9535 9.72887 6.52269
H 36.4976 9.11681 5.98804
H 35.3931 9.16935 7.09433
O 35.9431 6.51467 9.80439
H 36.4957 5.9623 9.21761
H 35.3887 7.06819 9.22203
O 32.6534 9.75238 9.80375
H 32.0627 9.20027 10.3528
H 32.0727 10.3205 9.26152
O 34.2919 8.13379 8.17377
H 33.7032 8.68559 8.72508
H 33.708 7.58517 7.61452
O 37.5571 11.3869 8.1534
H 37.0226 10.8316 7.55376
H 38.1052 11.9613 7.58422
O 37.6076 8.12131 11.4316
H 37.0424 7.54205 10.8851
H 38.175 7.53252 11.9664
O 34.3175 11.3444 11.4412
H 33.7562 10.7621 10.8933
H 34.8851 10.759 11.9794
O 39.194 13.0403 6.55255
H 38.6624 13.6255 5.97957
H 0.545312 13.6235 7.0973
O 3.30168 16.2855 6.53873
H 3.88503 15.7391 5.97692
H 3.8898 16.8373 7.08943
O 3.2893 13.0221 9.78828
H 2.70726 12.4929 10.3688
H 3.84243 13.5701 10.3779
O 39.1991 16.2383 9.80465
H 38.6413 15.6437 10.3428
H 0.542341 15.6664 9.24002
O 1.65237 14.6532 8.15498
H 2.2363 14.0934 8.70301
H 2.24449 15.2108 7.61329
O 4.92432 17.9226 8.19017
H 5.46982 17.3679 8.78155
H 4.34803 18.4604 8.7671
O 4.91874 14.651 11.4343
H 5.5117 15.2031 10.8886
H 5.49657 14.1044 12.0014
O 1.61548 17.8828 11.4033
H 1.06515 17.2761 10.8697
H 2.17192 17.3147 11.9716
O 6.55129 13.007 6.51026
H 7.09331 12.4205 5.94738
H 6.01024 12.4244 7.07757
O 9.8011 16.2531 6.5535
H 10.3352 15.6838 5.96643
H 9.2505 15.6503 7.09158
O 9.77213 12.9984 9.82839
H 9.22228 12.4587 10.4285
H 10.343 13.5506 10.396
O 6.55491 16.2812 9.80729
H 7.15126 16.8422 10.3415
H 7.12799 15.734 9.23658
O 8.17212 14.6282 8.16012
H 8.70874 14.0431 8.72971
H 7.61981 14.0432 7.60541
O 11.4355 17.8739 8.16909
H 11.9976 17.2978 8.72263
H 10.8758 17.2779 7.6333
O 11.4409 14.65 11.424
H 12.0281 15.195 10.865
H 12.0318 14.1098 11.9841
O 8.18065 17.9265 11.4185
H 8.74363 18.5182 10.8825
H 7.61092 18.505 11.962
O 13.0336 13.0204 6.54478
H 12.4542 13.5712 5.984
H 12.4407 12.4617 7.0837
O 16.2941 16.3053 6.53507
H 15.704 16.8377 5.9674
H 15.7167 15.7202 7.06351
O 16.3662 12.9905 9.75972
H 16.9496 13.5396 10.3193
H 16.9552 12.4323 9.21617
O 13.1022 16.2732 9.7998
H 13.6784 16.8337 10.3543
H 13.6947 15.7196 9.25463
O 14.7056 14.6287 8.15647
H 15.2806 14.0422 8.68467
H 14.1257 14.0468 7.62779
O 17.9163 17.9116 8.19096
H 17.338 18.4587 8.75839
H 17.3211 17.3599 7.64709
O 17.9781 14.6057 11.4153
H 18.5474 15.1926 10.881
H 18.5824 14.0639 11.961
O 14.7147 17.8958 11.4783
H 15.2593 17.3227 12.052
H 14.1537 18.4275 12.0759
O 19.5902 13.0423 6.54103
H 19.003 13.6113 6.00597
H 19.0088 12.464 7.07246
O 22.8864 16.2646 6.57648
H 23.4557 16.7939 7.1691
H 22.3272 15.712 7.157
O 22.9056 13.0244 9.80875
H 23.4536 12.4934 9.19837
H 22.3268 13.5751 9.24692
O 19.5957 16.296 9.80637
H 20.1503 16.8847 10.3537
H 19.027 16.8758 9.26413
O 21.2325 14.6455 8.20067
H 20.6507 15.2078 8.74841
H 20.6422 14.1041 7.64206
O 24.5292 17.8758 8.20199
H 25.0743 17.3439 8.81508
H 23.9689 18.4483 8.76183
O 24.5161 14.6328 11.4813
H 23.9664 14.0655 10.906
H 25.0555 14.0294 12.0282
O 21.2378 17.932 11.4328
H 21.8117 17.3794 11.9983
H 20.6959 18.4726 12.0405
O 26.1253 13.036 6.49815
H 26.6954 12.4985 5.91432
H 25.5649 13.5775 5.90751
O 29.4186 16.2412 6.54298
H 29.9602 15.6302 6.00508
H 28.8314 15.6805 7.08727
O 29.3924 13.0214 9.78386
H 29.948 12.4872 9.18223
H 28.832 13.5813 9.21248
O 26.1437 16.2756 9.8532
H 26.7102 16.8165 10.4377
H 25.6036 15.7127 10.4418
O 27.7382 14.6544 8.1596
H 27.1682 15.2084 8.72649
H 27.142 14.1167 7.6034
O 31.0466 17.8703 8.17728
H 31.5948 17.2835 8.73528
H 30.4972 17.2795 7.62539
O 31.0479 14.6122 11.4466
H 30.4899 14.0426 10.8824
H 31.5988 14.011 11.9859
O 27.8037 17.894 11.4615
H 28.3486 17.3413 12.0548
H 27.2707 18.4766 12.0367
O 32.71 12.9903 6.52399
H 33.3011 12.4378 5.97678
H 33.289 13.5551 7.07182
O 35.9578 16.2911 6.55232
H 36.538 15.7433 5.9887
H 36.5469 16.8355 7.11025
O 35.9179 12.9893 9.80447
H 35.3651 12.3947 10.3485
H 36.475 12.4121 9.24646
O 32.6664 16.255 9.81969
H 32.1285 15.6554 10.3731
H 33.2368 15.6832 9.26988
O 34.3079 14.6435 8.17172
H 34.8877 14.0827 8.72373
H 34.8982 15.2056 7.63423
O 37.5811 17.9237 8.19653
H 38.1351 17.3714 8.78032
H 37.0187 18.4695 8.77965
O 37.5377 14.6306 11.4341
H 36.9501 14.0686 10.8924
H 36.9545 15.217 11.9547
O 34.264 17.9543 11.4136
H 33.6912 17.371 10.8778
H 33.6638 18.5024 11.9557
O 39.1919 19.5349 6.52812
H 38.6086 20.0788 5.96459
H 38.6054 18.9946 7.09267
O 3.27213 22.7693 6.50697
H 3.81345 22.1689 5.95909
H 2.70455 22.1992 7.06113
O 3.24004 19.5341 9.79277
H 2.65628 18.964 10.3306
H 2.65208 20.0671 9.22225
O 0.0132589 22.7841 9.82891
H 0.569051 23.3403 10.4081
H 38.667 22.2413 10.4192
O 1.61869 21.1566 8.14541
H 1.05362 21.718 8.71009
H 1.0118 20.6204 7.597
O 4.88222 24.4132 8.1442
H 4.34144 23.845 7.56118
H 5.43789 24.9577 7.55269
O 4.86246 21.1717 11.4212
H 4.26787 20.6246 10.871
H 4.28351 21.7299 11.9763
O 1.63894 24.4459 11.4405
H 2.19177 25.0181 10.8735
H 1.08608 25.0396 11.9844
O 6.55088 19.5567 6.5789
H 5.99847 19.0112 7.17367
H 7.09547 20.1234 7.15919
O 9.79833 22.7955 6.5651
H 10.3489 23.3721 7.13063
H 9.24781 22.2621 7.17123
O 9.83483 19.5451 9.80171
H 10.4523 20.0748 10.3432
H 10.3903 18.9723 9.23801
O 6.506 22.812 9.82946
H 5.90523 22.2591 10.3668
H 5.93484 23.3523 9.24945
O 8.17498 21.1949 8.22242
H 7.61773 21.7365 8.81465
H 8.74158 20.6452 8.79836
O 11.4507 24.4365 8.16658
H 10.8936 25.0203 8.7171
H 12.0032 25.02 7.61274
O 11.4915 21.1445 11.4107
H 12.0816 21.6908 10.8558
H 12.0671 20.6033 11.9849
O 8.16552 24.417 11.4253
H 7.55372 23.8748 10.8886
H 7.60231 24.9523 12.0171
O 13.0667 19.5008 6.55111
H 13.5993 18.9339 5.95995
H 12.5128 18.8978 7.08553
O 16.3199 22.7634 6.51252
H 15.7283 23.3096 5.95882
H 15.7423 22.2109 7.07419
O 16.3085 19.5402 9.84612
H 15.7714 18.9978 10.4565
H 16.8821 20.0967 10.4072
O 13.1015 22.7782 9.76738
H 12.5412 23.3439 9.20191
H 13.633 22.2212 9.16459
O 14.7017 21.1306 8.15462
H 15.2485 20.571 8.74047
H 14.1583 20.5197 7.61917
O 17.9774 24.3998 8.1289
H 17.4266 23.8451 7.54434
H 18.5111 24.9758 7.54719
O 17.988 21.1676 11.444
H 18.5652 21.7068 10.8693
H 18.5813 20.6193 11.9934
O 14.7279 24.3998 11.4096
H 14.1859 23.8102 10.8501
H 15.2732 23.8182 11.9743
O 19.5624 19.4959 6.53075
H 18.9803 20.0401 5.96467
H 18.9664 18.9557 7.08615
O 22.864 22.7547 6.52613
H 23.4248 22.174 5.97594
H 22.3068 22.1599 7.06488
O 22.8769 19.5434 9.7854
H 22.2964 19.0072 10.3603
H 22.2799 20.0688 9.21815
O 19.614 22.7773 9.76607
H 20.1611 23.3597 10.3276
H 19.0631 23.3628 9.21153
O 21.215 21.1153 8.13369
H 20.648 21.6925 8.68199
H 20.609 20.5713 7.59316
O 24.4774 24.4271 8.12462
H 23.8792 24.9499 8.69364
H 23.9028 23.8488 7.58527
O 24.5371 21.1919 11.3928
H 25.0794 21.7398 10.793
H 23.9686 20.6396 10.822
O 21.2069 24.4007 11.4539
H 21.7755 23.8554 12.0321
H 20.6487 24.9403 12.0457
O 26.1402 19.4794 6.52699
H 26.704 18.8979 5.98068
H 25.5999 18.8924 7.09143
O 29.3961 22.7895 6.52294
H 28.8039 23.3461 5.97996
H 28.8164 22.2304 7.07563
O 29.3953 19.513 9.77452
H 28.8606 18.9254 10.3439
H 29.9639 18.9267 9.23778
O 26.1614 22.8269 9.743
H 25.5998 23.371 9.15705
H 26.7021 22.259 9.16032
O 27.7696 21.1415 8.13682
H 28.3233 20.5619 8.69582
H 27.2191 20.5454 7.59238
O 31.0393 24.4411 8.11911
H 30.4814 23.8823 7.54316
H 31.6066 24.9702 7.52457
O 30.991 21.1923 11.3934
H 30.4179 20.6275 10.8383
H 30.3928 21.7326 11.9468
O 27.7984 24.4419 11.3826
H 27.2375 23.9005 10.7932
H 28.3613 24.9852 10.7978
O 32.6601 19.5275 6.56166
H 33.2312 18.9598 6.00819
H 32.1189 18.9238 7.10678
O 35.9579 22.8141 6.5622
H 36.5032 23.3494 7.17185
H 35.3828 22.2609 7.12589
O 35.9278 19.561 9.80428
H 35.3241 19.0157 10.3463
H 35.3521 20.1123 9.23833
O 32.6505 22.8182 9.78636
H 32.0496 22.2727 10.331
H 32.0773 23.3719 9.22102
O 34.293 21.1886 8.16854
H 33.6978 21.7368 8.71658
H 33.7142 20.6261 7.61774
O 37.5874 24.4098 8.20129
H 38.1443 23.8632 8.79016
H 37.046 24.9738 8.78875
O 37.5698 21.1707 11.445
H 36.9788 20.6326 10.8824
H 36.9843 21.7146 12.0074
O 34.2865 24.4224 11.4343
H 33.707 23.8802 10.8639
H 33.6898 24.973 11.9791
O 39.2078 0.0102806 13.0806
H 38.6566 25.4936 13.6572
H 0.559009 0.546452 13.6716
O 3.29761 3.22492 13.0656
H 3.87354 2.66168 12.5121
H 3.89747 3.77288 13.6103
O 3.24548 0.00872923 16.3773
H 2.69291 25.5025 16.9625