2304
Atoms. Timestep: 0
O 1.3904 1.7969 3.45603
H 1.89517 1.47705 4.22922
H 1.84155 1.44382 2.66409
O 5.3282 4.56463 1.11857
H 5.29287 3.58733 1.12744
H 4.40054 4.87149 1.11752
O 6.65639 5.47904 3.42116
H 6.18227 5.13854 4.20495
H 6.16787 5.14833 2.64117
O 5.32015 4.56356 5.72847
H 5.3267 3.58597 5.74404
H 4.37984 4.83065 5.73171
O 2.74462 0.881566 5.74887
H 3.685 1.14963 5.75584
H 2.74629 29.6982 5.72714
O 2.65232 5.45736 5.74015
H 2.1579 5.13793 4.95914
H 2.15668 5.14114 6.52154
O 5.33627 1.75999 1.15743
H 5.78157 1.44449 1.96724
H 4.42358 1.4109 1.18484
O 5.41156 1.75394 5.76949
H 5.89352 1.43258 6.55707
H 5.90942 1.43254 4.99154
O 1.30536 4.57495 8.03708
H 1.29462 3.59732 8.04861
H 0.372516 4.86515 8.06379
O 1.31278 4.59753 3.43474
H 0.376082 4.87649 3.41817
H 1.31405 3.61985 3.42272
O 2.66805 5.51495 1.13734
H 2.67209 6.49206 1.13682
H 2.19431 5.24137 1.9465
O 2.67813 0.82419 1.14698
H 2.22178 1.11905 0.334718
H 2.67178 29.6419 1.11729
O 6.7338 0.866149 3.46037
H 6.76691 29.684 3.43903
H 7.66149 1.17075 3.42334
O 6.74542 0.853338 8.08107
H 7.67649 1.15094 8.05647
H 6.7736 29.6705 8.08902
O 6.66949 5.4858 8.02095
H 6.17437 5.16342 7.2426
H 6.19459 5.15142 8.80737
O 1.3914 1.77074 8.05026
H 1.89377 1.45547 7.27338
H 1.88659 1.47637 8.84037
O 9.39897 1.81183 3.39822
H 9.86682 1.53611 2.58542
H 9.38475 2.78898 3.38321
O 13.3535 4.5955 1.10285
H 13.8298 4.88692 0.300761
H 13.3795 3.61807 1.09128
O 14.6864 5.48991 3.42418
H 14.1964 5.15282 4.19939
H 14.2064 5.1726 2.63476
O 13.3374 4.57381 5.72279
H 13.3223 3.59647 5.72578
H 12.4057 4.86616 5.73743
O 10.7115 0.893087 5.71217
H 11.6426 1.18713 5.67858
H 10.2894 1.22343 4.8947
O 10.6663 5.52585 5.74218
H 10.6817 6.50352 5.7446
H 10.1951 5.26219 4.9277
O 13.4215 1.78414 1.11866
H 13.9108 1.45759 0.338191
H 13.9019 1.45425 1.90261
O 13.3926 1.76197 5.71735
H 13.8492 1.42607 6.51262
H 13.8998 1.43844 4.94697
O 9.33918 4.59984 8.03525
H 8.41023 4.90202 8.00543
H 9.76858 4.95198 7.23032
O 9.34376 4.63463 3.41692
H 9.77812 4.98161 2.61354
H 8.41373 4.93232 3.38413
O 10.6951 5.55011 1.1125
H 10.7315 6.52674 1.10891
H 11.6223 5.24247 1.11364
O 10.7404 0.905171 1.09681
H 10.3119 1.21135 0.273721
H 11.6624 1.22674 1.07115
O 14.7654 0.865918 3.43154
H 14.7738 29.6837 3.4354
H 15.6999 1.15169 3.44993
O 14.6956 0.836973 8.05208
H 14.6923 29.6547 8.07071
H 14.2269 1.1314 8.85606
O 14.7023 5.48966 8.02115
H 14.2535 5.16426 7.2168
H 15.6137 5.13649 7.99334
O 9.39826 1.79628 8.0231
H 9.86934 1.51578 7.21384
H 9.38533 2.77415 7.99996
O 17.4274 1.80244 3.45932
H 17.9058 1.52202 4.26343
H 17.4263 2.77928 3.46366
O 21.3981 4.63181 1.10095
H 21.3798 3.6546 1.07662
H 21.8571 4.91356 0.285153
O 22.7096 5.52602 3.40977
H 22.2974 5.18462 2.5911
H 23.6306 5.20061 3.41147
O 21.3384 4.61872 5.72584
H 20.4178 4.94465 5.67998
H 21.7876 4.94053 4.921
O 18.7462 0.862116 5.76829
H 19.6783 1.15231 5.79826
H 18.7608 29.6801 5.74139
O 18.6812 5.52713 5.7279
H 18.6713 6.5046 5.72605
H 18.21 5.25311 4.91568
O 21.368 1.82343 1.128
H 21.8293 1.47018 0.342238
H 20.4556 1.47484 1.09675
O 21.4109 1.80443 5.78249
H 21.8913 1.52126 6.58401
H 21.392 2.78134 5.79795
O 17.3597 4.57043 8.03753
H 17.3796 3.59348 8.00436
H 17.8323 4.87937 7.23995
O 17.3761 4.62451 3.41583
H 17.8121 4.96363 2.60927
H 16.4471 4.92309 3.38224
O 18.7179 5.55271 1.12226
H 18.7394 6.52962 1.112
H 19.6506 5.26242 1.1263
O 18.7116 0.870259 1.12754
H 18.6689 29.6889 1.15618
H 18.2667 1.18494 1.93899
O 22.7149 0.917901 3.44455
H 22.2451 1.24116 4.23806
H 22.231 1.2666 2.67096
O 22.742 0.867636 8.09891
H 22.7277 29.685 8.09279
H 22.2484 1.14698 8.89423
O 22.6739 5.4897 8.0474
H 22.1749 5.18912 7.26308
H 22.1827 5.17747 8.83139
O 17.3611 1.76483 8.04841
H 16.4447 1.42761 8.02137
H 17.8147 1.41383 7.25724
O 25.4071 1.7933 3.44939
H 24.484 1.4757 3.46596
H 25.8304 1.46616 4.2674
O 29.3552 4.63314 1.0848
H 29.7884 4.9322 0.262106
H 28.4383 4.97002 1.05713
O 30.6673 5.51974 3.41446
H 30.6674 6.49777 3.40116
H 30.1988 5.24336 2.60253
O 29.3682 4.62186 5.76372
H 29.8517 4.97551 6.5359
H 29.8265 4.95256 4.96744
O 26.7193 0.883754 5.76745
H 26.282 1.19872 6.58254
H 27.6364 1.2195 5.79828
O 26.6857 5.52301 5.75411
H 27.6077 5.20301 5.79437
H 26.2374 5.18848 6.55574
O 29.4027 1.8124 1.17156
H 29.8733 1.55023 1.98714
H 29.4041 2.7895 1.15493
O 29.3828 1.81394 5.78986
H 29.8618 1.51953 6.5894
H 29.3987 2.79147 5.80832
O 25.3278 4.59382 8.03658
H 25.3266 3.61666 8.06845
H 24.3884 4.86451 8.02668
O 25.3924 4.61498 3.43083
H 25.8447 4.90453 4.24765
H 25.414 3.63805 3.44677
O 26.6926 5.55468 1.11308
H 26.6601 6.53128 1.12814
H 26.255 5.2544 1.93383
O 26.7644 0.893777 1.14559
H 27.6793 1.23638 1.19929
H 26.3051 1.21061 1.94743
O 30.7302 0.916173 3.48219
H 30.2929 1.23762 4.29518
H 31.6535 1.23472 3.51748
O 30.7541 0.863654 8.06361
H 31.6955 1.127 8.0538
H 30.7434 29.6818 8.03823
O 30.6751 5.53047 8.07915
H 30.6661 6.50776 8.10586
H 30.1827 5.23054 8.86895
O 25.3926 1.78746 8.08809
H 24.4819 1.43465 8.12931
H 25.8501 1.46422 8.88918
O 1.3492 9.19683 3.42396
H 0.429984 8.86707 3.3876
H 1.78698 8.90166 2.60257
O 5.31878 12.0316 1.10821
H 5.33591 11.0538 1.12482
H 4.37595 12.2873 1.12619
O 6.69527 12.9509 3.38936
H 6.69582 13.9281 3.40236
H 6.20958 12.6826 2.58546
O 5.36608 12.0068 5.69651
H 5.38208 11.0295 5.68543
H 5.83904 12.3015 4.89379
O 2.67769 8.26876 5.73584
H 2.66311 7.2912 5.71732
H 2.22871 8.55996 4.91806
O 2.71962 12.9298 5.72587
H 3.63112 12.579 5.67187
H 2.25317 12.6083 4.93009
O 5.38914 9.2242 1.11701
H 5.8854 8.8925 0.343154
H 5.8551 8.89347 1.90905
O 5.34511 9.19733 5.74822
H 5.78905 8.87489 6.55641
H 4.42637 8.8667 5.78076
O 1.35652 12.0239 8.03112
H 1.36876 11.0464 8.00098
H 1.84736 12.3198 7.23955
O 1.31556 12.0082 3.44446
H 0.386322 12.3088 3.45114
H 1.28788 11.0305 3.44964
O 2.64366 12.9042 1.13174
H 2.14384 12.5764 1.90524
H 2.17458 12.5834 0.336569
O 2.69963 8.33832 1.08834
H 2.27369 8.65828 0.269964
H 3.62389 8.65258 1.06715
O 6.70362 8.28885 3.4505
H 6.21659 8.57653 4.2479
H 6.66874 7.31187 3.4562
O 6.70506 8.29381 8.05543
H 7.63363 8.59479 8.06806
H 6.73107 7.31668 8.04418
O 6.65169 12.9572 8.03381
H 6.18751 12.6281 7.23997
H 6.16615 12.6044 8.80564
O 1.33423 9.21119 8.01158
H 0.408702 8.8991 7.99081
H 1.76612 8.85539 7.20962
O 9.36078 9.22628 3.47875
H 8.45134 8.86881 3.50241
H 9.79844 8.92694 4.29974
O 13.3643 12.0262 1.12949
H 13.4047 11.0496 1.16747
H 13.8398 12.3452 1.92123
O 14.713 12.9782 3.43626
H 14.6836 13.955 3.46353
H 14.2374 12.6697 4.23203
O 13.3364 12.0302 5.71494
H 13.3231 11.0524 5.7123
H 12.404 12.3192 5.72277
O 10.7065 8.34194 5.78946
H 10.2971 8.67371 6.61225
H 11.6326 8.65266 5.79157
O 10.6572 12.955 5.71891
H 10.6525 13.9324 5.69872
H 10.1904 12.6651 4.91026
O 13.4064 9.22544 1.17485
H 13.8809 8.88991 0.388504
H 13.8948 8.88772 1.95171
O 13.383 9.22651 5.74002
H 13.8743 8.90003 6.51923
H 13.8664 8.89681 4.95737
O 9.33991 12.0697 8.04363
H 8.41604 12.3859 8.02966
H 9.75639 12.3928 7.22049
O 9.34381 12.0318 3.40534
H 8.41362 12.3319 3.37512
H 9.31248 11.0552 3.43677
O 10.7109 12.9661 1.12393
H 10.2606 12.6268 1.92263
H 11.6196 12.6062 1.14756
O 10.7261 8.3675 1.16029
H 11.6496 8.68492 1.203
H 10.287 8.66886 1.97926
O 14.7508 8.29869 3.46099
H 14.7585 7.32114 3.45612
H 15.6853 8.58475 3.46115
O 14.7112 8.29619 8.04534
H 15.6428 8.59267 8.06381
H 14.7399 7.3186 8.03232
O 14.7004 12.938 8.003
H 14.2466 12.6132 7.20042
H 15.6195 12.6084 7.95734
O 9.38266 9.24555 8.10203
H 9.83836 8.96704 8.92011
H 9.37015 10.2223 8.11043
O 17.4093 9.24447 3.4491
H 17.8688 8.96306 2.63272
H 17.3833 10.2216 3.41354
O 21.3591 12.0817 1.09054
H 21.8021 12.4202 0.287416
H 20.4346 12.3938 1.04825
O 22.6962 12.9871 3.40424
H 22.6649 13.9642 3.40539
H 22.2315 12.7019 2.59321
O 21.3813 12.0261 5.70065
H 21.4218 11.0495 5.68562
H 21.8472 12.3324 4.89744
O 18.7139 8.34234 5.75874
H 19.6403 8.65161 5.73581
H 18.2881 8.69106 4.95021
O 18.7274 12.9108 5.71454
H 19.6447 12.5735 5.67185
H 18.2854 12.6109 4.89588
O 21.3645 9.27731 1.11284
H 21.8135 8.97671 0.298512
H 21.3873 10.2549 1.09206
O 21.3989 9.22254 5.73518
H 21.8854 8.8865 6.51338
H 21.8611 8.87584 4.94606
O 17.3579 12.0383 8.01247
H 17.3782 11.0606 8.02966
H 17.8406 12.3037 7.2052
O 17.37 12.0494 3.40085
H 17.7815 12.3824 2.57934
H 16.4531 12.3885 3.40786
O 18.6676 12.9675 1.07478
H 18.6689 13.945 1.0845
H 18.1904 12.7013 0.26465
O 18.7122 8.36688 1.12261
H 18.2754 8.69869 0.313214
H 19.6288 8.70822 1.09555
O 22.6791 8.32453 3.41313
H 22.2074 8.63108 2.61406
H 22.6858 7.34734 3.37044
O 22.731 8.3063 8.04375
H 23.6592 8.60991 8.05152
H 22.7579 7.3293 8.05129
O 22.6569 12.9757 8.03781
H 22.2045 12.6392 7.24044
H 22.1544 12.639 8.80571
O 17.3661 9.22572 8.06881
H 17.8589 8.89931 7.29062
H 17.8405 8.89533 8.85703
O 25.3353 9.26677 3.40183
H 24.4028 8.97351 3.40115
H 25.316 10.2443 3.43186
O 29.3511 12.0515 1.09587
H 29.7932 12.3749 0.286257
H 28.4362 12.395 1.07239
O 30.6597 12.9644 3.41093
H 30.6783 13.9416 3.40341
H 30.2027 12.6928 2.5904
O 29.3347 12.0461 5.71012
H 28.4186 12.387 5.71502
H 29.7498 12.3801 4.89059
O 26.6752 8.33971 5.7006
H 26.6624 7.36278 5.70271
H 26.2033 8.61973 4.89228
O 26.6767 12.9819 5.75887
H 26.6916 13.9593 5.76637
H 26.2191 12.7113 6.57869
O 29.3451 9.23794 1.13676
H 28.4067 8.9641 1.1209
H 29.3365 10.2153 1.10941
O 29.3373 9.24274 5.7398
H 28.4048 8.94873 5.71553
H 29.3099 10.2205 5.72387
O 25.3387 12.0972 8.07237
H 24.4091 12.397 8.09654
H 25.7606 12.4296 8.8891
O 25.3573 12.0672 3.4431
H 25.7784 12.3914 4.26355
H 24.4428 12.4132 3.44693
O 26.6946 12.985 1.12481
H 26.2385 12.6809 1.93377
H 26.6871 13.9621 1.16333
O 26.6676 8.36695 1.10248
H 26.1766 8.6894 0.320621
H 26.1855 8.70711 1.88275
O 30.6821 8.32385 3.42541
H 30.2166 8.65444 4.21855
H 30.1887 8.67039 2.65522
O 30.6682 8.33206 8.04708
H 30.1764 8.65691 7.26686
H 30.2011 8.68133 8.83152
O 30.6969 12.9517 8.01143
H 30.2563 12.6358 7.1984
H 31.6094 12.6032 7.98474
O 25.3893 9.2823 8.03331
H 25.8488 8.99287 7.22136
H 25.3843 10.2592 8.01536
O 1.40373 16.6522 3.46504
H 1.8943 16.3174 4.24146
H 1.87907 16.3189 2.67852
O 5.33344 19.4627 1.14487
H 5.32038 18.4859 1.15532
H 4.39905 19.7472 1.13303
O 6.69761 20.4241 3.43695
H 6.67483 21.4006 3.4207
H 6.21414 20.1211 2.64452
O 5.39236 19.4993 5.77013
H 5.87255 19.8467 6.54719
H 5.85723 19.8367 4.98007
O 2.75814 15.7369 5.75907
H 3.68838 16.0375 5.76318
H 2.78469 14.7594 5.74545
O 2.70403 20.3962 5.75416
H 3.62916 20.0837 5.78347
H 2.27538 20.0637 6.56775
O 5.37 16.6357 1.15388
H 5.87283 16.3147 0.379827
H 5.85749 16.335 1.94583
O 5.41828 16.6859 5.77851
H 5.86505 16.4002 6.59942
H 5.41957 17.6635 5.79597
O 1.36773 19.4643 8.04458
H 1.36806 18.4872 8.05103
H 1.83217 19.7348 8.86166
O 1.33715 19.463 3.47208
H 1.82529 19.7581 4.26607
H 1.3755 18.4859 3.48491
O 2.65492 20.3857 1.1421
H 2.17235 20.0613 1.92726
H 2.17871 20.0434 0.360302
O 2.7109 15.72 1.1554
H 3.64916 15.9941 1.13941
H 2.71264 14.7429 1.14758
O 6.72861 15.7618 3.46469
H 6.3054 16.0961 4.27971
H 7.64709 16.0945 3.47307
O 6.69008 15.7577 8.11764
H 6.21494 16.0406 8.92409
H 6.64706 14.7805 8.10538
O 6.71423 20.4165 8.08006
H 6.68633 21.393 8.10857
H 6.23833 20.1078 8.87575
O 1.38946 16.6409 8.04858
H 1.88832 16.3094 7.27605
H 1.86017 16.3167 8.84104
O 9.38902 16.7048 3.43517
H 9.8688 16.3994 2.64088
H 9.39272 17.6816 3.40023
O 13.4091 19.517 1.14584
H 13.8801 19.8523 0.358001
H 13.9043 19.8335 1.92614
O 14.7394 20.4004 3.47181
H 14.2888 20.0529 4.26623
H 15.6604 20.0754 3.51296
O 13.3678 19.4785 5.76251
H 13.3651 18.5004 5.79192
H 13.8274 19.7671 6.57584
O 10.6629 15.7665 5.76003
H 10.1716 16.0819 6.54286
H 10.2059 16.1275 4.97492
O 10.6961 20.396 5.75121
H 11.6167 20.0695 5.77683
H 10.2581 20.0556 6.55583
O 13.4093 16.7039 1.13133
H 13.8725 16.402 0.326046
H 13.4193 17.6809 1.10198
O 13.3349 16.6725 5.77795
H 13.7687 16.3258 6.5832
H 12.4126 16.3514 5.80384
O 9.36696 19.4565 8.04585
H 9.31664 18.4802 8.0624
H 8.44408 19.7776 8.06447
O 9.36904 19.5113 3.43721
H 9.79419 19.8273 4.25832
H 8.45152 19.8464 3.44635
O 10.7314 20.3975 1.15093
H 10.2885 20.0796 1.96184
H 11.6555 20.0848 1.19219
O 10.7483 15.7734 1.14175
H 11.6811 16.0651 1.13533
H 10.7664 14.796 1.14843
O 14.6986 15.7879 3.4703
H 14.1972 16.113 4.24314
H 14.2416 16.1263 2.67575
O 14.6669 15.7481 8.06435
H 14.2133 16.0235 8.88511
H 14.6708 14.7705 8.06827
O 14.6952 20.3893 8.07791
H 14.2817 20.0406 8.89307
H 15.6198 20.0723 8.08303
O 9.33619 16.6551 8.08841
H 8.41987 16.3157 8.13877
H 9.79162 16.3322 8.89056
O 17.3808 16.676 3.49354
H 17.8092 16.319 4.2965
H 16.4563 16.3607 3.5099
O 21.3525 19.5357 1.11784
H 21.7998 19.8697 0.315905
H 20.4344 19.8686 1.08562
O 22.6982 20.4585 3.43908
H 22.685 21.436 3.42061
H 22.2275 20.1643 2.63583
O 21.3871 19.5316 5.76955
H 21.8794 19.8531 6.55023
H 21.8605 19.8647 4.98257
O 18.6929 15.7195 5.78245
H 19.6135 16.0488 5.78933
H 18.7495 14.7442 5.76628
O 18.73 20.4242 5.77435
H 18.7365 21.4014 5.77734
H 19.6682 20.1483 5.77979
O 21.3498 16.7249 1.12548
H 21.8063 16.427 0.314737
H 21.3584 17.7021 1.09498
O 21.3279 16.7111 5.7531
H 21.8324 16.4121 6.53499
H 21.3432 17.6876 5.77893
O 17.3703 19.484 8.06086
H 17.3692 18.5075 8.01043
H 17.8493 19.7962 7.26836
O 17.4077 19.4926 3.47635
H 17.885 19.7931 4.27526
H 17.4237 18.5157 3.50364
O 18.6723 20.4406 1.12547
H 18.653 21.4179 1.15589
H 18.2351 20.1329 1.94299
O 18.695 15.7819 1.16764
H 19.6105 16.1238 1.17375
H 18.2705 16.1002 1.98792
O 22.6741 15.8007 3.4423
H 22.1851 16.1285 4.22253
H 22.205 16.1455 2.65763
O 22.7233 15.786 8.01741
H 23.6653 16.0426 8.02543
H 22.7061 14.8084 8.02393
O 22.7093 20.4121 8.09306
H 22.2484 20.0902 8.89234
H 23.6227 20.0686 8.14422
O 17.3251 16.6849 8.0396
H 16.406 16.3527 8.03246
H 17.7611 16.3158 7.24672
O 25.3612 16.7146 3.4524
H 24.4316 16.4142 3.45436
H 25.329 17.6921 3.45261
O 29.3639 19.5107 1.16291
H 29.7998 19.8338 1.97547
H 28.4476 19.8511 1.18691
O 30.6905 20.3916 3.48487
H 30.2521 20.0682 4.29625
H 31.6068 20.0517 3.51063
O 29.3568 19.5141 5.80417
H 29.7957 19.8637 6.60481
H 28.4364 19.8406 5.82309
O 26.7467 15.7914 5.73776
H 27.6662 16.1188 5.69876
H 26.2915 16.1318 4.94355
O 26.6712 20.41 5.77699
H 26.6614 21.3878 5.77573
H 26.2056 20.1297 6.58849
O 29.3698 16.7004 1.15847
H 29.8599 16.4142 1.95438
H 29.3728 17.6783 1.17993
O 29.4122 16.7117 5.74897
H 29.8652 16.4032 6.55874
H 29.4033 17.688 5.79994
O 25.3602 19.4811 8.11067
H 25.3903 18.5045 8.10779
H 25.8543 19.7661 8.90478
O 25.3588 19.521 3.449
H 25.7832 19.8365 4.27127
H 24.4437 19.8643 3.46141
O 26.7127 20.4416 1.14685
H 26.6951 21.4186 1.15018
H 26.2351 20.157 1.95055
O 26.7075 15.7892 1.15947
H 27.6282 16.1158 1.20063
H 26.2583 16.1295 1.95832
O 30.7326 15.7852 3.44617
H 30.3116 16.1234 4.26131
H 31.6633 16.0819 3.47396
O 30.7217 15.7663 8.05847
H 31.6604 16.0384 8.05024
H 30.7262 14.7888 8.04228
O 30.7274 20.4401 8.07588
H 30.7689 21.4168 8.07659
H 31.6524 20.1253 8.04949
O 25.4037 16.6605 8.05921
H 25.9043 16.3559 7.27714
H 25.8851 16.3383 8.84617
O 1.3096 24.1124 3.40096
H 0.386829 23.7905 3.39091
H 1.73006 23.7717 2.58661
O 5.38376 26.9149 1.11655
H 5.374 25.9371 1.11251
H 5.84925 27.1841 0.299928
O 6.7315 27.8524 3.42376
H 7.65101 27.5211 3.39188
H 6.28849 27.5184 2.61991
O 5.38422 26.9764 5.74516
H 5.87394 27.2939 6.52825
H 5.87918 27.2848 4.96186
O 2.6578 23.219 5.69986
H 2.66389 22.2417 5.70644
H 2.18516 23.4835 4.88632
O 2.70437 27.8693 5.70998
H 3.62611 27.5466 5.7057
H 2.2858 27.5255 4.89571
O 5.33272 24.1026 1.15324
H 5.75772 23.7955 1.97753
H 4.41227 23.777 1.17236
O 5.31356 24.1614 5.78519
H 4.38246 23.8693 5.7368
H 5.29896 25.1386 5.77376
O 1.35932 26.9701 8.01567
H 0.428888 27.2648 7.98063
H 1.78768 27.2992 7.20105
O 1.38684 26.9331 3.42269
H 1.85256 27.2047 2.60664
H 1.35775 25.9565 3.40173
O 2.71213 27.8116 1.11242
H 3.63758 27.497 1.08512
H 2.28267 27.4754 0.301063
O 2.65352 23.1911 1.11233
H 2.2075 23.4796 0.292184
H 2.64083 22.213 1.09797
O 6.67556 23.2395 3.4822
H 6.24684 23.5682 4.29557
H 7.58985 23.584 3.48656
O 6.65546 23.2289 8.08129
H 6.15121 23.5617 7.31337
H 6.18873 23.5506 8.87719
O 6.73488 27.844 8.07234
H 6.26064 27.5012 8.85507
H 7.6471 27.4955 8.12983
O 1.38948 24.1542 8.03895
H 1.81663 23.8523 7.21364
H 1.41271 25.1311 8.01662
O 9.34343 24.1522 3.42475
H 9.78644 23.8493 2.60824
H 9.39242 25.1286 3.41228
O 13.3867 26.9471 1.10017
H 13.8466 27.2407 0.289986
H 13.3863 25.9701 1.08176
O 14.6872 27.8425 3.43846
H 14.1816 27.5092 4.20556
H 14.2221 27.5236 2.64046
O 13.3415 26.9211 5.72995
H 13.3018 25.9442 5.74371
H 12.4154 27.2303 5.77028
O 10.6501 23.2046 5.73636
H 10.6511 22.2277 5.71103
H 10.2101 23.5035 4.91659
O 10.6716 27.8704 5.78679
H 10.6633 28.8472 5.79752
H 10.2043 27.579 6.59314
O 13.3492 24.1335 1.14573
H 13.7734 23.8071 1.96331
H 12.4265 23.8122 1.16336
O 13.3196 24.1127 5.76528
H 13.7501 23.7807 6.57783
H 12.4007 23.7794 5.78314
O 9.37621 26.9175 8.1162
H 9.39355 25.9402 8.11253
H 9.86856 27.1991 8.91201
O 9.39544 26.9579 3.44234
H 9.84117 27.2867 4.24776
H 9.896 27.3134 2.68153
O 10.7229 27.8829 1.15117
H 10.7489 28.8598 1.12583
H 11.654 27.5865 1.12667
O 10.6782 23.2109 1.12304
H 10.2209 23.4817 0.303126
H 10.6794 22.2332 1.1219
O 14.6742 23.2131 3.46441
H 14.2038 23.4958 4.27354
H 14.6851 22.2356 3.48848
O 14.656 23.2 8.06951
H 14.654 22.2226 8.09829
H 14.1825 23.4957 8.87212
O 14.7468 27.8249 8.01685
H 14.2986 27.4903 7.21671
H 15.6665 27.4967 7.98698
O 9.33825 24.1033 8.05831
H 8.40932 23.8017 8.03649
H 9.75303 23.7806 7.23442
O 17.338 24.1321 3.47373
H 17.778 23.8149 4.28625
H 16.423 23.7894 3.49828
O 21.3377 27.0136 1.09298
H 21.7738 27.3235 0.275966
H 20.4118 27.3226 1.05594
O 22.6977 27.8986 3.381
H 22.6865 28.8764 3.38705
H 22.2151 27.6305 2.57379
O 21.3996 26.971 5.71186
H 20.4735 27.281 5.68978
H 21.8191 27.2967 4.89222
O 18.696 23.2416 5.78103
H 18.2557 23.5492 6.59753
H 19.6076 23.5909 5.80499
O 18.7156 27.8487 5.72026
H 18.2133 27.5265 4.94661
H 18.2587 27.5047 6.51262
O 21.3377 24.187 1.17567
H 21.8236 23.9092 1.97671
H 21.353 25.1639 1.17391
O 21.3829 24.1589 5.77836
H 21.8419 23.8671 6.59035
H 21.409 25.1364 5.78148
O 17.4168 26.9156 8.04861
H 17.4081 25.9396 8.10173
H 17.8832 27.2263 8.84885
O 17.3457 26.9362 3.42876
H 16.4105 27.2226 3.4397
H 17.3215 25.9583 3.44594
O 18.6549 27.8677 1.10915
H 18.1888 27.5185 1.89412
H 18.1635 27.544 0.328466
O 18.6753 23.2489 1.1585
H 19.5918 23.586 1.19481
H 18.2342 23.5669 1.97057
O 22.7092 23.2664 3.46056
H 22.2891 23.5833 4.28443
H 23.6321 23.5862 3.47693
O 22.7065 23.2219 8.09184
H 22.6921 22.2446 8.11596
H 22.2333 23.5205 8.89211
O 22.7532 27.8483 8.03407
H 22.3018 27.5442 7.22342
H 23.6685 27.5084 7.98792
O 17.3411 24.1111 8.09018
H 16.4188 23.7896 8.09344
H 17.754 23.7691 8.90849
O 25.3862 24.1743 3.42033
H 25.8319 23.883 2.60038
H 25.3845 25.1519 3.38973
O 29.3877 26.9614 1.14076
H 29.8685 27.2544 0.341873
H 29.8831 27.3138 1.9065
O 30.7359 27.894 3.42635
H 30.7643 28.8707 3.45194
H 31.6652 27.5925 3.43667
O 29.3509 26.942 5.69761
H 28.4334 27.274 5.64016
H 29.816 27.2755 4.90588
O 26.6943 23.2164 5.71321
H 27.6134 23.5477 5.72404
H 26.2831 23.5649 4.89812
O 26.6977 27.8592 5.68947
H 26.6937 28.8365 5.70472
H 26.2141 27.5956 4.88244
O 29.3569 24.156 1.1267
H 29.7863 23.8423 1.94629
H 29.3898 25.1329 1.16035
O 29.3624 24.1353 5.77237
H 29.8226 23.8648 6.59003
H 29.376 25.1131 5.75978
O 25.4111 26.9191 8.03329
H 25.4184 25.9415 8.00424
H 25.8741 27.2173 7.22651
O 25.3542 26.9794 3.37243
H 25.8001 27.308 2.56671
H 24.4338 27.3066 3.33332
O 26.7264 27.8868 1.08275
H 26.7674 28.8641 1.10686
H 27.655 27.5825 1.11252
O 26.6906 23.2585 1.09524
H 26.2425 23.5817 0.289754
H 27.6073 23.5966 1.06422
O 30.648 23.2012 3.44383
H 30.2149 23.5005 4.26709
H 30.6477 22.2243 3.47651
O 30.7291 23.2483 8.08514
H 31.6455 23.5887 8.09497
H 30.3058 23.5706 8.90529
O 30.6765 27.8352 8.01399
H 30.175 27.5258 7.23463
H 30.1986 27.5142 8.80205
O 25.3879 24.1093 8.03219
H 24.467 23.7832 8.0409
H 25.795 23.7785 7.20765
O 1.39819 1.81836 12.6726
H 1.86744 1.54763 13.4865
H 1.39338 2.79616 12.6737
O 5.35635 4.58632 10.338
H 5.35185 3.60882 10.3631
H 4.42083 4.86737 10.3307
O 6.68699 5.51823 12.638
H 6.65949 6.49533 12.618
H 6.2302 5.2176 11.8276
O 5.35426 4.60227 14.9447
H 4.43007 4.9189 14.9072
H 5.78656 4.92286 14.1285
O 2.69601 0.920686 15.0006
H 3.61676 1.2426 15.0634
H 2.23038 1.2519 15.7939
O 2.68619 5.50772 14.9413
H 2.68543 6.48579 14.9142
H 2.20403 5.22322 14.1404
O 5.39876 1.78183 10.3822
H 5.88909 1.44333 9.6081
H 5.85928 1.44665 11.1761
O 5.37126 1.79267 15.0479
H 5.84182 1.51561 15.8578
H 5.39597 2.7698 15.0328
O 1.38311 4.61718 17.2919
H 1.8581 4.92829 16.4968
H 1.88966 4.94006 18.0627
O 1.3463 4.62599 12.6264
H 1.78361 4.94757 11.8133
H 0.424753 4.95087 12.588
O 2.68696 5.50598 10.3109
H 2.67928 6.48379 10.2879
H 2.21049 5.21167 9.50988
O 2.73067 0.899806 10.3585
H 3.65705 1.20955 10.3931
H 2.29504 1.2303 11.1677
O 6.66316 0.847286 12.7149
H 6.20287 1.13426 13.5267
H 6.66274 29.665 12.7234
O 6.71978 0.862116 17.3551
H 6.24758 1.15386 18.1592
H 6.69923 29.68 17.3612
O 6.69493 5.52812 17.2368
H 6.70036 6.50537 17.2281
H 6.213 5.25131 16.4333
O 1.30605 1.80919 17.279
H 0.372784 1.51996 17.276
H 1.29421 2.78621 17.3003
O 9.31998 1.77446 12.6373
H 8.38873 1.4797 12.6704
H 9.29627 2.75203 12.6588
O 13.3678 4.60518 10.3543
H 13.8066 4.91713 9.53909
H 12.4464 4.92789 10.3149
O 14.6645 5.54499 12.6806
H 14.664 6.52187 12.6424
H 14.2122 5.24194 11.8692
O 13.3569 4.60739 14.9967
H 13.8492 4.94738 15.769
H 13.8149 4.94809 14.2039
O 10.6694 0.84507 14.9442
H 10.6572 29.6624 14.9192
H 10.2077 1.14006 14.1349
O 10.6644 5.46965 14.9996
H 11.5903 5.15957 15.0219
H 10.2354 5.12406 15.8074
O 13.3496 1.77999 10.3726
H 12.4111 1.50568 10.3705
H 13.3441 2.75754 10.357
O 13.3375 1.79418 14.9991
H 12.4085 1.49326 15.001
H 13.313 2.77126 15.0003
O 9.33181 4.57214 17.3027
H 9.31038 3.59519 17.3003
H 8.40138 4.86987 17.2592
O 9.33896 4.5763 12.6607
H 9.78143 4.89338 13.4714
H 8.42788 4.92955 12.6839
O 10.6862 5.49309 10.3455
H 10.2117 5.148 11.1264
H 10.194 5.18147 9.56101
O 10.685 0.871668 10.3538
H 10.2241 1.1965 9.55553
H 10.1741 1.19885 11.1203
O 14.6637 0.886067 12.6864
H 14.1735 1.20939 13.468
H 14.1769 1.21063 11.9028
O 14.7533 0.877411 17.2677
H 15.6745 1.19874 17.219
H 14.2905 1.22372 16.4805
O 14.7046 5.53834 17.2966
H 14.6854 6.51474 17.3281
H 14.2114 5.23484 18.0842
O 9.38267 1.76579 17.2712
H 8.46948 1.41794 17.2941
H 9.78792 1.42945 16.4476
O 17.3174 1.79412 12.6686
H 16.3809 1.51302 12.6775
H 17.3011 2.7716 12.6929
O 21.3324 4.60918 10.3768
H 20.4099 4.93028 10.4077
H 21.7708 4.95106 11.1806
O 22.6752 5.55093 12.6726
H 22.6483 6.52759 12.6976
H 22.2329 5.24781 13.4899
O 21.3677 4.60939 14.9886
H 21.3757 3.63178 14.9815
H 21.8428 4.87795 15.7992
O 18.7179 0.8525 14.9317
H 18.7014 29.6701 14.9216
H 18.216 1.14478 14.1459
O 18.6895 5.52321 14.9796
H 19.6086 5.19377 15.005
H 18.2519 5.17745 15.7826
O 21.3563 1.79423 10.3778
H 20.4221 1.50805 10.3949
H 21.3349 2.77164 10.3748
O 21.3591 1.7906 14.9543
H 20.4447 1.45091 14.8901
H 21.8306 1.46999 14.1609
O 17.3678 4.59938 17.2851
H 17.3575 3.62223 17.2917
H 16.4356 4.89021 17.2885
O 17.3218 4.60554 12.6835
H 17.7807 4.93973 13.4786
H 16.4104 4.95697 12.716
O 18.6529 5.49147 10.3693
H 18.1598 5.16066 11.1456
H 18.1891 5.15561 9.57743
O 18.6862 0.892961 10.3866
H 18.205 1.19986 9.59352
H 18.1802 1.2176 11.1575
O 22.745 0.889444 12.6662
H 22.2904 1.21649 11.8656
H 23.6557 1.2429 12.633
O 22.6689 0.890667 17.2731
H 22.1726 1.20578 16.4925
H 22.1905 1.21278 18.0611
O 22.727 5.48687 17.2986
H 22.2839 5.16115 18.107
H 23.6417 5.14343 17.3229
O 17.4235 1.79106 17.2685
H 17.9148 1.45674 16.494
H 17.8823 1.45762 18.0636
O 25.3921 1.83297 12.642
H 25.8779 1.5321 11.8486
H 25.3936 2.8103 12.6075
O 29.3051 4.60033 10.3543
H 29.3028 3.62332 10.3505
H 28.3703 4.88296 10.3437
O 30.7011 5.53294 12.6181
H 30.6738 6.51039 12.6012
H 30.1976 5.23189 11.8361
O 29.4038 4.60987 14.9508
H 29.8926 4.95379 15.7245
H 29.877 4.93657 14.1607
O 26.6982 0.877726 14.9419
H 27.6098 1.23026 14.9366
H 26.2675 1.22138 14.1343
O 26.7111 5.47516 14.9759
H 27.639 5.17243 14.9369
H 26.2821 5.17397 14.1517
O 29.4043 1.78201 10.3563
H 29.9093 1.45942 9.5842
H 29.8928 1.48351 11.148
O 29.3695 1.80757 14.9663
H 29.8017 1.49825 15.7868
H 29.402 2.7846 14.9935
O 25.3857 4.55228 17.2861
H 25.3905 3.57469 17.2548
H 25.8492 4.84686 16.478
O 25.3594 4.63899 12.634
H 24.4392 4.9665 12.6376
H 25.7714 4.98686 11.818
O 26.6523 5.54806 10.3223
H 26.6647 6.52495 10.2937
H 26.179 5.25518 9.51826
O 26.7531 0.875074 10.3723
H 27.6928 1.14448 10.3575
H 26.747 29.6932 10.3841
O 30.7502 0.902058 12.6772
H 30.2999 1.22986 13.4803
H 31.6661 1.24197 12.7145
O 30.656 0.873871 17.2893
H 30.6801 29.6918 17.3087
H 30.1884 1.15139 18.1012
O 30.729 5.52974 17.2463
H 30.7312 6.50711 17.2481
H 31.666 5.25365 17.2791
O 25.3499 1.74623 17.2674
H 24.421 1.44652 17.2303
H 25.7855 1.41332 16.4588
O 1.34688 9.23582 12.6226
H 0.414519 8.94395 12.6496
H 1.32211 10.213 12.6467
O 5.34091 12.031 10.339
H 5.31407 11.0534 10.3365
H 4.40911 12.3246 10.3653
O 6.72778 12.9667 12.6263
H 7.64695 12.6359 12.601
H 6.28819 12.6378 11.8189
O 5.38226 12.0723 14.9386
H 4.46725 12.4131 14.9159
H 5.81754 12.3827 14.1212
O 2.69478 8.30832 14.9221
H 3.60866 8.65299 14.9267
H 2.2684 8.65003 14.1119
O 2.70393 12.9891 14.9452
H 2.67287 13.966 14.9827
H 2.26042 12.6755 15.7583
O 5.33398 9.21994 10.342
H 5.79347 8.87855 9.54993
H 4.4172 8.88464 10.2994
O 5.35597 9.25722 14.9781
H 5.82862 8.97047 15.7837
H 5.36984 10.2346 14.9884
O 1.37979 12.048 17.2545
H 1.37884 11.071 17.2589
H 1.86322 12.3268 18.0565
O 1.32888 12.0496 12.6716
H 1.77689 12.3945 13.4692
H 0.408526 12.3743 12.7069
O 2.66619 12.9439 10.3674
H 2.17485 12.6145 11.1456
H 2.18883 12.6194 9.57905
O 2.66967 8.3117 10.3132
H 2.18408 8.63718 9.52941
H 2.18741 8.64795 11.0942
O 6.66152 8.32588 12.6617
H 6.1863 8.65858 13.4483
H 6.18033 8.6615 11.8806
O 6.70328 8.34494 17.2901
H 7.6219 8.67361 17.3448
H 6.24887 8.65876 18.0961
O 6.75053 12.9331 17.2675
H 6.30615 12.6254 16.4543
H 7.67288 12.6126 17.2235
O 1.33968 9.22595 17.2303
H 0.413356 8.91914 17.1848
H 1.78424 8.893 16.4269
O 9.35242 9.21017 12.6965
H 8.42467 8.90523 12.7017
H 9.75735 8.87197 13.5201
O 13.3814 12.05 10.31
H 13.3903 11.0722 10.3045
H 13.8554 12.3252 9.49962
O 14.6817 12.9551 12.6425
H 14.6591 13.9322 12.6544
H 14.2238 12.6789 11.8246
O 13.3751 12.0216 14.9575
H 13.357 11.0445 14.9271
H 13.8348 12.3117 14.145
O 10.6326 8.27545 15.0009
H 10.1992 8.58391 15.8209
H 10.6245 7.29818 15.0389
O 10.7284 12.986 14.9543
H 11.6456 12.6485 14.9255
H 10.2834 12.639 14.1562
O 13.3766 9.24429 10.3358
H 13.8037 8.88882 9.53198
H 12.4614 8.9016 10.3427
O 13.2981 9.21245 14.9631
H 13.7485 8.88264 14.1619
H 12.3812 8.87755 14.9305
O 9.41971 12.062 17.2658
H 9.9065 12.3908 16.4848
H 9.88952 12.3989 18.0532
O 9.38991 12.0346 12.6515
H 9.86429 12.3011 11.8393
H 9.39155 11.0573 12.6562
O 10.7164 12.9397 10.3457
H 11.6382 12.6193 10.2884
H 10.2684 12.6448 9.52924
O 10.7177 8.31152 10.4078
H 10.6866 7.33442 10.4023
H 10.2564 8.59018 11.2232
O 14.6935 8.35505 12.6598
H 14.2769 8.69319 11.8432
H 15.6132 8.68591 12.6593
O 14.6314 8.35481 17.3096
H 14.1369 8.66085 16.5251
H 14.1529 8.68858 18.0939
O 14.6807 12.939 17.2692
H 14.251 12.5895 16.4638
H 15.6103 12.6403 17.2388
O 9.37006 9.24879 17.3266
H 9.84346 8.97193 18.1358
H 9.4111 10.2258 17.3131
O 17.3748 9.24896 12.6795
H 17.8211 8.95999 13.4992
H 17.3954 10.2259 12.684
O 21.332 12.0436 10.3309
H 21.2925 11.0664 10.3193
H 20.4052 12.3521 10.3543
O 22.7293 12.9503 12.6041
H 22.2883 12.6086 11.8019
H 23.6502 12.6252 12.5828
O 21.3844 12.0656 14.9226
H 21.3847 11.088 14.9382
H 21.8614 12.3292 14.1116
O 18.6655 8.33184 15.0179
H 18.1803 8.61362 15.8176
H 18.6602 7.3539 15.0272
O 18.719 12.9485 14.9609
H 19.6399 12.627 14.9009
H 18.2655 12.6418 14.1515
O 21.3357 9.24506 10.3221
H 21.7968 8.90759 9.53002
H 20.4284 8.882 10.2973
O 21.319 9.25578 14.9801
H 21.7872 8.9057 15.763
H 20.4003 8.92616 15.0371
O 17.3644 12.0635 17.2698
H 17.8658 12.3626 16.4867
H 17.8412 12.4023 18.0525
O 17.3651 12.0675 12.6486
H 16.4426 12.3883 12.6302
H 17.785 12.3998 11.8305
O 18.6618 12.9864 10.3364
H 18.669 13.9637 10.3092
H 18.2064 12.6933 9.52321
O 18.692 8.29548 10.3708
H 18.6514 7.31905 10.3983
H 18.2462 8.61049 11.1816
O 22.6516 8.37168 12.6688
H 22.1494 8.69664 13.4417
H 22.1825 8.69265 11.8746
O 22.6914 8.29702 17.2451
H 23.6147 8.6158 17.2745
H 22.7401 7.32135 17.2602
O 22.6606 13.0098 17.2623
H 22.649 13.9871 17.2372
H 22.2266 12.7109 16.4399
O 17.2965 9.24915 17.3124
H 16.3573 8.97935 17.3046
H 17.3016 10.2264 17.2956
O 25.3496 9.22981 12.6746
H 24.4182 8.93704 12.6944
H 25.7657 8.87311 13.4842
O 29.3415 12.0773 10.3267
H 29.7917 12.3938 9.51967
H 28.429 12.4262 10.2928
O 30.659 12.9412 12.6664
H 30.1577 12.6206 13.4414
H 30.1904 12.6149 11.8737
O 29.3092 12.0505 14.9806
H 29.7824 12.3761 15.7706
H 28.3995 12.4055 15.0367
O 26.6328 8.29773 14.9941
H 26.1808 8.59535 15.8078
H 26.651 7.32159 15.026
O 26.6734 12.9832 15.0094
H 26.6366 13.9604 15.002
H 26.1974 12.7009 15.8156
O 29.3513 9.27437 10.3577
H 28.4177 8.98263 10.3607
H 29.3246 10.2523 10.3433
O 29.2965 9.24524 14.9519
H 28.3669 8.94377 14.9604
H 29.2641 10.2228 14.9643
O 25.3239 12.0771 17.3053
H 24.407 12.4147 17.3231
H 25.76 12.4087 18.1145
O 25.4098 12.039 12.6659
H 25.8424 12.3412 13.488
H 25.4235 11.0621 12.696
O 26.6843 13.0084 10.3625
H 26.6815 13.9844 10.4188
H 26.2604 12.6877 11.1836
O 26.6913 8.36224 10.3447
H 26.2205 8.71273 9.56268
H 26.2003 8.67013 11.1308
O 30.6773 8.33906 12.6559
H 30.1846 8.6559 13.4381
H 30.1978 8.68308 11.8759
O 30.677 8.34318 17.2368
H 30.1665 8.67113 16.4708
H 30.2288 8.67708 18.0379
O 30.7086 12.9744 17.2689
H 30.7275 13.9516 17.2733
H 31.6401 12.6817 17.2615
O 25.3432 9.25367 17.3111
H 25.8285 8.97348 18.1111
H 25.342 10.2308 17.3216
O 1.32998 16.6918 12.697
H 0.398711 16.3962 12.689
H 1.30536 17.6692 12.6883
O 5.35947 19.4795 10.3768
H 5.37872 18.5023 10.4008
H 5.82047 19.7811 11.1843
O 6.69663 20.4249 12.6739
H 6.66394 21.4012 12.7128
H 6.2683 20.1065 13.4929
O 5.42474 19.4733 14.9913
H 5.41828 18.4964 15.0212