LAMMPS Description

         2304  atoms
           2  atom types
         # 31.2914 29.4143 27.1096
         0 31.2914 xlo xhi
         0 29.4143 ylo yhi
         0 27.1096 zlo zhi

Masses

  2 15.9994
  1  1.0080

Atoms

1 2 1.29 1.8 3.42
2 1 1.76 1.45 4.16
3 1 1.75 1.45 2.64
4 2 5.3 4.59 1.08
5 1 5.26 3.61 1.07
6 1 4.4 4.86 1.07
7 2 6.57 5.45 3.33
8 1 6.1 5.1 4.09
9 1 6.08 5.12 2.58
10 2 5.34 4.53 5.63
11 1 5.28 3.6 5.64
12 1 4.41 4.83 5.64
13 2 2.55 0.88 5.65
14 1 3.48 1.17 5.65
15 1 2.59 -0.06 5.63
16 2 2.67 5.55 5.65
17 1 2.2 5.2 4.89
18 1 2.19 5.19 6.4
19 2 5.3 1.78 1.02
20 1 5.7 1.45 1.82
21 1 4.39 1.45 1.06
22 2 5.22 1.79 5.64
23 1 5.68 1.44 6.39
24 1 5.7 1.44 4.88
25 2 1.39 4.56 7.9
26 1 1.36 3.63 7.88
27 1 0.45 4.84 7.88
28 2 1.42 4.62 3.36
29 1 0.52 4.88 3.36
30 1 1.39 3.64 3.38
31 2 2.73 5.46 1.01
32 1 2.68 6.39 1.04
33 1 2.26 5.16 1.81
34 2 2.6 0.87 1.13
35 1 2.15 1.14 0.34
36 1 2.59 -0.1 1.09
37 2 6.48 0.86 3.41
38 1 6.53 -0.1 3.41
39 1 7.4 1.14 3.4
40 2 6.43 0.87 7.83
41 1 7.35 1.18 7.85
42 1 6.49 -0.07 7.82
43 2 6.63 5.48 7.82
44 1 6.16 5.13 7.08
45 1 6.15 5.15 8.59
46 2 1.31 1.9 7.83
47 1 1.77 1.52 7.09
48 1 1.76 1.54 8.61
49 2 9.07 1.75 3.42
50 1 9.55 1.47 2.65
51 1 9.11 2.71 3.39
52 2 13.03 4.57 1.12
53 1 13.5 4.84 0.33
54 1 13.05 3.61 1.1
55 2 14.44 5.47 3.35
56 1 13.95 5.13 4.1
57 1 13.96 5.14 2.58
58 2 13.09 4.54 5.57
59 1 13.03 3.58 5.59
60 1 12.18 4.83 5.58
61 2 10.39 0.81 5.67
62 1 11.28 1.14 5.63
63 1 9.97 1.16 4.88
64 2 10.52 5.43 5.63
65 1 10.48 6.38 5.62
66 1 10.05 5.16 4.84
67 2 13 1.83 1.15
68 1 13.47 1.49 0.37
69 1 13.47 1.47 1.89
70 2 12.95 1.79 5.61
71 1 13.44 1.45 6.37
72 1 13.43 1.46 4.85
73 2 9.22 4.56 7.9
74 1 8.32 4.87 7.85
75 1 9.63 4.88 7.1
76 2 9.19 4.55 3.41
77 1 9.61 4.86 2.61
78 1 8.29 4.86 3.35
79 2 10.47 5.37 1.09
80 1 10.49 6.35 1.08
81 1 11.37 5.12 1.08
82 2 10.46 0.84 1.21
83 1 10.02 1.17 0.4
84 1 11.33 1.18 1.16
85 2 14.26 0.89 3.34
86 1 14.32 -0.06 3.35
87 1 15.18 1.18 3.35
88 2 14.37 0.86 7.82
89 1 14.35 -0.09 7.85
90 1 13.92 1.13 8.64
91 2 14.39 5.46 7.92
92 1 13.95 5.12 7.11
93 1 15.27 5.15 7.86
94 2 9.11 1.82 7.94
95 1 9.56 1.51 7.14
96 1 9.15 2.77 7.88
97 2 16.96 1.74 3.33
98 1 17.42 1.47 4.12
99 1 16.97 2.7 3.36
100 2 20.82 4.5 1.19
101 1 20.86 3.57 1.14
102 1 21.31 4.82 0.4
103 2 22.13 5.51 3.42
104 1 21.71 5.15 2.65
105 1 23.04 5.18 3.37
106 2 20.94 4.51 5.62
107 1 20.03 4.86 5.59
108 1 21.34 4.86 4.84
109 2 18.24 0.93 5.63
110 1 19.16 1.2 5.64
111 1 18.26 -0.02 5.62
112 2 18.33 5.43 5.65
113 1 18.29 6.38 5.62
114 1 17.86 5.15 4.86
115 2 20.93 1.76 1.12
116 1 21.33 1.42 0.33
117 1 20.02 1.45 1.08
118 2 20.89 1.73 5.6
119 1 21.34 1.46 6.4
120 1 20.91 2.69 5.62
121 2 16.99 4.62 7.87
122 1 16.98 3.65 7.84
123 1 17.45 4.88 7.08
124 2 17 4.51 3.41
125 1 17.43 4.84 2.61
126 1 16.11 4.84 3.36
127 2 18.28 5.4 1.09
128 1 18.32 6.36 1.1
129 1 19.19 5.13 1.11
130 2 18.32 0.93 1.04
131 1 18.32 -0.04 1.07
132 1 17.87 1.2 1.83
133 2 22.18 0.8 3.38
134 1 21.71 1.16 4.13
135 1 21.71 1.15 2.62
136 2 22.24 0.91 7.86
137 1 22.21 -0.05 7.89
138 1 21.77 1.18 8.64
139 2 22.23 5.48 7.87
140 1 21.75 5.15 7.12
141 1 21.76 5.13 8.63
142 2 16.94 1.85 7.91
143 1 16.06 1.49 7.88
144 1 17.38 1.51 7.13
145 2 24.8 1.81 3.36
146 1 23.9 1.47 3.4
147 1 25.21 1.49 4.16
148 2 28.7 4.45 1.13
149 1 29.14 4.81 0.35
150 1 27.82 4.81 1.09
151 2 30.1 5.34 3.39
152 1 30.05 6.29 3.38
153 1 29.62 5.06 2.62
154 2 28.65 4.51 5.63
155 1 29.13 4.83 6.38
156 1 29.15 4.82 4.86
157 2 26.08 0.88 5.62
158 1 25.65 1.23 6.42
159 1 26.96 1.19 5.67
160 2 26.06 5.47 5.51
161 1 26.96 5.15 5.56
162 1 25.64 5.15 6.32
163 2 28.71 1.76 1.06
164 1 29.15 1.47 1.87
165 1 28.72 2.71 1.11
166 2 28.62 1.69 5.62
167 1 29.08 1.43 6.38
168 1 28.66 2.67 5.63
169 2 24.87 4.58 7.88
170 1 24.82 3.64 7.88
171 1 23.94 4.87 7.87
172 2 24.82 4.59 3.26
173 1 25.26 4.87 4.06
174 1 24.81 3.62 3.32
175 2 26.14 5.45 1.01
176 1 26.12 6.41 1.06
177 1 25.69 5.16 1.81
178 2 26.02 0.85 1.04
179 1 26.92 1.17 1.07
180 1 25.62 1.17 1.84
181 2 29.92 0.77 3.31
182 1 29.5 1.09 4.09
183 1 30.82 1.1 3.35
184 2 29.91 0.91 7.85
185 1 30.83 1.21 7.84
186 1 29.98 -0.04 7.87
187 2 30.01 5.37 7.8
188 1 29.98 6.33 7.83
189 1 29.58 5.09 8.6
190 2 24.79 1.89 7.84
191 1 23.91 1.53 7.88
192 1 25.23 1.53 8.62
193 2 1.33 9.24 3.4
194 1 0.43 8.88 3.39
195 1 1.75 8.88 2.63
196 2 5.34 11.88 1.08
197 1 5.29 10.93 1.11
198 1 4.42 12.17 1.11
199 2 6.63 12.7 3.44
200 1 6.6 13.66 3.41
201 1 6.18 12.42 2.65
202 2 5.27 11.9 5.7
203 1 5.26 10.94 5.67
204 1 5.73 12.16 4.91
205 2 2.68 8.32 5.63
206 1 2.64 7.36 5.61
207 1 2.21 8.59 4.85
208 2 2.64 12.89 5.67
209 1 3.53 12.53 5.65
210 1 2.21 12.54 4.89
211 2 5.2 9.09 1.16
212 1 5.68 8.75 0.39
213 1 5.68 8.76 1.9
214 2 5.22 9.11 5.62
215 1 5.63 8.76 6.43
216 1 4.33 8.8 5.65
217 2 1.29 12 7.86
218 1 1.3 11.03 7.83
219 1 1.77 12.27 7.08
220 2 1.36 11.9 3.37
221 1 0.44 12.18 3.37
222 1 1.32 10.95 3.37
223 2 2.69 12.84 1.15
224 1 2.2 12.5 1.89
225 1 2.21 12.5 0.37
226 2 2.56 8.14 1.16
227 1 2.17 8.51 0.37
228 1 3.46 8.46 1.15
229 2 6.52 8.22 3.32
230 1 6.06 8.49 4.13
231 1 6.51 7.27 3.34
232 2 6.44 8.19 7.91
233 1 7.37 8.49 7.88
234 1 6.5 7.25 7.88
235 2 6.65 12.82 7.85
236 1 6.18 12.49 7.12
237 1 6.16 12.5 8.63
238 2 1.3 9.23 7.89
239 1 0.42 8.86 7.85
240 1 1.74 8.9 7.11
241 2 9.14 9.15 3.29
242 1 8.25 8.81 3.34
243 1 9.56 8.82 4.1
244 2 13.07 11.89 1.08
245 1 13.09 10.94 1.11
246 1 13.51 12.17 1.88
247 2 14.37 12.71 3.34
248 1 14.36 13.68 3.37
249 1 13.91 12.45 4.13
250 2 13.08 11.89 5.64
251 1 13.03 10.93 5.65
252 1 12.16 12.18 5.64
253 2 10.43 8.17 5.61
254 1 10.01 8.51 6.39
255 1 11.33 8.5 5.65
256 2 10.47 12.79 5.66
257 1 10.44 13.75 5.64
258 1 10.04 12.51 4.86
259 2 13.04 9.16 1.1
260 1 13.51 8.8 0.36
261 1 13.5 8.8 1.87
262 2 12.99 9.13 5.67
263 1 13.46 8.8 6.42
264 1 13.48 8.78 4.91
265 2 9.19 11.85 7.96
266 1 8.3 12.17 7.91
267 1 9.61 12.19 7.15
268 2 9.26 11.95 3.31
269 1 8.36 12.23 3.34
270 1 9.22 10.98 3.32
271 2 10.49 12.89 1.07
272 1 10.06 12.54 1.85
273 1 11.38 12.52 1.1
274 2 10.39 8.22 1.03
275 1 11.3 8.54 1.08
276 1 9.98 8.53 1.82
277 2 14.27 8.2 3.41
278 1 14.33 7.26 3.39
279 1 15.19 8.51 3.38
280 2 14.23 8.25 7.88
281 1 15.15 8.56 7.88
282 1 14.3 7.31 7.88
283 2 14.34 12.79 7.87
284 1 13.93 12.45 7.09
285 1 15.25 12.46 7.83
286 2 9.14 9.09 7.78
287 1 9.58 8.79 8.59
288 1 9.15 10.03 7.84
289 2 16.94 9.11 3.37
290 1 17.39 8.84 2.57
291 1 16.98 10.07 3.34
292 2 20.93 11.79 1.11
293 1 21.34 12.13 0.33
294 1 20.03 12.14 1.09
295 2 22.25 12.72 3.43
296 1 22.22 13.67 3.39
297 1 21.79 12.43 2.63
298 2 20.92 11.93 5.71
299 1 20.91 10.97 5.67
300 1 21.36 12.2 4.91
301 2 18.22 8.18 5.67
302 1 19.12 8.51 5.64
303 1 17.82 8.52 4.87
304 2 18.28 12.89 5.63
305 1 19.18 12.53 5.61
306 1 17.87 12.53 4.86
307 2 20.83 9.09 1.17
308 1 21.28 8.8 0.36
309 1 20.86 10.03 1.13
310 2 20.83 9.15 5.65
311 1 21.3 8.82 6.41
312 1 21.32 8.8 4.89
313 2 17.02 11.92 7.94
314 1 17.02 10.99 7.89
315 1 17.46 12.22 7.12
316 2 17.02 11.85 3.45
317 1 17.42 12.18 2.65
318 1 16.11 12.17 3.41
319 2 18.29 12.76 1.16
320 1 18.28 13.72 1.14
321 1 17.85 12.49 0.36
322 2 18.2 8.15 1.16
323 1 17.8 8.5 0.37
324 1 19.11 8.49 1.14
325 2 22.23 8.2 3.46
326 1 21.76 8.5 2.65
327 1 22.2 7.27 3.41
328 2 22.08 8.25 7.92
329 1 23 8.55 7.9
330 1 22.13 7.3 7.9
331 2 22.22 12.86 7.84
332 1 21.76 12.51 7.11
333 1 21.74 12.49 8.62
334 2 16.93 9.23 7.86
335 1 17.39 8.88 7.12
336 1 17.39 8.86 8.63
337 2 24.84 9.08 3.33
338 1 23.93 8.81 3.35
339 1 24.8 10.04 3.33
340 2 28.7 11.78 1.15
341 1 29.14 12.12 0.36
342 1 27.83 12.15 1.12
343 2 30.1 12.7 3.4
344 1 30.04 13.66 3.38
345 1 29.62 12.42 2.62
346 2 28.7 11.86 5.63
347 1 27.83 12.22 5.58
348 1 29.15 12.18 4.83
349 2 26.07 8.24 5.66
350 1 26.07 7.28 5.61
351 1 25.63 8.52 4.86
352 2 26.18 12.82 5.52
353 1 26.14 13.76 5.56
354 1 25.73 12.52 6.31
355 2 28.77 9.07 1.09
356 1 27.85 8.79 1.09
357 1 28.73 10.02 1.09
358 2 28.8 9.13 5.58
359 1 27.86 8.83 5.59
360 1 28.74 10.06 5.58
361 2 24.87 11.85 7.8
362 1 23.97 12.18 7.83
363 1 25.28 12.19 8.59
364 2 24.89 11.87 3.3
365 1 25.31 12.21 4.08
366 1 23.98 12.18 3.35
367 2 26.14 12.81 1.09
368 1 25.68 12.53 1.89
369 1 26.11 13.76 1.12
370 2 26.17 8.19 1.09
371 1 25.7 8.54 0.34
372 1 25.69 8.51 1.85
373 2 30.01 8.14 3.37
374 1 29.55 8.51 4.11
375 1 29.54 8.49 2.6
376 2 30 8.13 7.83
377 1 29.55 8.5 7.08
378 1 29.52 8.47 8.6
379 2 30.01 12.82 7.95
380 1 29.58 12.5 7.14
381 1 30.89 12.52 7.89
382 2 24.74 9.12 7.92
383 1 25.19 8.82 7.12
384 1 24.78 10.07 7.88
385 2 1.32 16.5 3.36
386 1 1.8 16.18 4.11
387 1 1.8 16.15 2.6
388 2 5.31 19.26 1.14
389 1 5.25 18.3 1.11
390 1 4.41 19.56 1.12
391 2 6.55 20.05 3.35
392 1 6.53 21.03 3.34
393 1 6.1 19.79 2.58
394 2 5.19 19.24 5.61
395 1 5.69 19.57 6.36
396 1 5.67 19.55 4.85
397 2 2.57 15.66 5.59
398 1 3.48 15.93 5.59
399 1 2.61 14.7 5.6
400 2 2.62 20.18 5.55
401 1 3.51 19.85 5.61
402 1 2.2 19.87 6.36
403 2 5.12 16.45 1.07
404 1 5.6 16.13 0.32
405 1 5.63 16.14 1.84
406 2 5.22 16.45 5.54
407 1 5.67 16.16 6.34
408 1 5.24 17.4 5.59
409 2 1.27 19.37 7.82
410 1 1.31 18.4 7.84
411 1 1.73 19.64 8.61
412 2 1.28 19.34 3.36
413 1 1.75 19.6 4.13
414 1 1.32 18.36 3.37
415 2 2.75 20.21 1.09
416 1 2.25 19.9 1.86
417 1 2.27 19.88 0.34
418 2 2.58 15.58 1.13
419 1 3.49 15.85 1.11
420 1 2.62 14.61 1.13
421 2 6.51 15.53 3.32
422 1 6.09 15.87 4.11
423 1 7.4 15.88 3.35
424 2 6.58 15.56 7.85
425 1 6.11 15.84 8.65
426 1 6.57 14.62 7.88
427 2 6.62 20.11 7.83
428 1 6.57 21.06 7.85
429 1 6.16 19.83 8.64
430 2 1.31 16.55 7.87
431 1 1.79 16.21 7.12
432 1 1.78 16.2 8.63
433 2 9.07 16.47 3.39
434 1 9.55 16.18 2.6
435 1 9.13 17.41 3.37
436 2 13.04 19.14 1.13
437 1 13.5 19.5 0.37
438 1 13.52 19.47 1.88
439 2 14.4 20.15 3.33
440 1 13.98 19.83 4.13
441 1 15.3 19.82 3.39
442 2 13.08 19.31 5.55
443 1 13.07 18.35 5.58
444 1 13.52 19.57 6.34
445 2 10.46 15.59 5.65
446 1 9.99 15.93 6.39
447 1 9.98 15.92 4.88
448 2 10.42 20.18 5.56
449 1 11.32 19.86 5.6
450 1 10.01 19.88 6.36
451 2 13.03 16.43 1.15
452 1 13.47 16.14 0.35
453 1 13.07 17.38 1.12
454 2 13.06 16.5 5.57
455 1 13.47 16.18 6.38
456 1 12.16 16.19 5.62
457 2 9.19 19.37 7.9
458 1 9.17 18.39 7.89
459 1 8.29 19.63 7.89
460 2 9.24 19.24 3.34
461 1 9.62 19.57 4.13
462 1 8.31 19.55 3.37
463 2 10.42 20.23 1.04
464 1 10.01 19.91 1.83
465 1 11.32 19.88 1.07
466 2 10.42 15.58 1.07
467 1 11.34 15.87 1.08
468 1 10.47 14.63 1.09
469 2 14.43 15.52 3.35
470 1 13.94 15.85 4.11
471 1 13.95 15.85 2.6
472 2 14.34 15.64 7.87
473 1 13.89 15.88 8.66
474 1 14.33 14.66 7.88
475 2 14.36 20.14 7.85
476 1 13.94 19.81 8.65
477 1 15.25 19.82 7.89
478 2 9.18 16.59 7.84
479 1 8.29 16.23 7.86
480 1 9.59 16.25 8.63
481 2 16.95 16.58 3.37
482 1 17.38 16.21 4.15
483 1 16.07 16.22 3.38
484 2 20.88 19.15 1.13
485 1 21.31 19.51 0.34
486 1 20 19.5 1.1
487 2 22.24 20.06 3.35
488 1 22.19 21.03 3.34
489 1 21.76 19.79 2.58
490 2 20.85 19.23 5.65
491 1 21.33 19.56 6.37
492 1 21.35 19.55 4.86
493 2 18.18 15.57 5.64
494 1 19.11 15.88 5.64
495 1 18.24 14.64 5.62
496 2 18.23 20.17 5.65
497 1 18.26 21.12 5.64
498 1 19.15 19.9 5.65
499 2 20.87 16.4 1.13
500 1 21.31 16.14 0.33
501 1 20.88 17.37 1.09
502 2 20.84 16.47 5.59
503 1 21.3 16.18 6.39
504 1 20.88 17.42 5.63
505 2 16.94 19.29 7.95
506 1 16.96 18.35 7.9
507 1 17.4 19.59 7.15
508 2 16.99 19.3 3.35
509 1 17.44 19.58 4.15
510 1 16.99 18.35 3.4
511 2 18.3 20.08 1.1
512 1 18.28 21.05 1.12
513 1 17.85 19.82 1.89
514 2 18.23 15.54 1.07
515 1 19.13 15.86 1.1
516 1 17.82 15.89 1.87
517 2 22.22 15.51 3.36
518 1 21.74 15.87 4.12
519 1 21.75 15.84 2.6
520 2 22.14 15.54 7.93
521 1 23.07 15.85 7.92
522 1 22.19 14.61 7.9
523 2 22.14 20.15 7.76
524 1 21.75 19.83 8.58
525 1 23.05 19.86 7.8
526 2 17 16.58 7.91
527 1 16.09 16.23 7.89
528 1 17.4 16.21 7.13
529 2 24.82 16.48 3.34
530 1 23.91 16.2 3.34
531 1 24.77 17.44 3.33
532 2 28.74 19.21 1.09
533 1 29.16 19.56 1.87
534 1 27.84 19.56 1.13
535 2 30.02 20.19 3.26
536 1 29.59 19.86 4.07
537 1 30.9 19.88 3.32
538 2 28.74 19.22 5.57
539 1 29.16 19.55 6.35
540 1 27.84 19.57 5.6
541 2 26.05 15.59 5.63
542 1 26.96 15.9 5.6
543 1 25.65 15.93 4.83
544 2 26.13 20.17 5.55
545 1 26.12 21.14 5.6
546 1 25.69 19.89 6.34
547 2 28.67 16.4 1.08
548 1 29.11 16.12 1.86
549 1 28.69 17.37 1.11
550 2 28.69 16.39 5.62
551 1 29.14 16.13 6.4
552 1 28.71 17.37 5.64
553 2 24.84 19.35 7.79
554 1 24.83 18.4 7.84
555 1 25.27 19.63 8.61
556 2 24.8 19.28 3.27
557 1 25.22 19.61 4.09
558 1 23.92 19.58 3.32
559 2 26.18 20.12 1.06
560 1 26.14 21.08 1.07
561 1 25.69 19.85 1.84
562 2 26.08 15.49 1.04
563 1 26.97 15.82 1.08
564 1 25.65 15.85 1.82
565 2 29.92 15.51 3.31
566 1 29.53 15.82 4.11
567 1 30.84 15.83 3.34
568 2 29.94 15.6 7.88
569 1 30.87 15.89 7.88
570 1 29.99 14.65 7.89
571 2 30 20.12 7.82
572 1 30.02 21.08 7.85
573 1 30.91 19.86 7.84
574 2 24.75 16.61 7.9
575 1 25.22 16.26 7.14
576 1 25.23 16.25 8.65
577 2 1.35 23.94 3.38
578 1 0.45 23.57 3.35
579 1 1.77 23.6 2.6
580 2 5.19 26.63 1.18
581 1 5.2 25.68 1.14
582 1 5.64 26.9 0.37
583 2 6.5 27.54 3.44
584 1 7.4 27.21 3.39
585 1 6.08 27.2 2.65
586 2 5.21 26.6 5.59
587 1 5.69 26.93 6.35
588 1 5.69 26.93 4.84
589 2 2.65 22.99 5.65
590 1 2.63 22.03 5.61
591 1 2.19 23.27 4.86
592 2 2.61 27.58 5.63
593 1 3.51 27.25 5.59
594 1 2.19 27.23 4.84
595 2 5.21 23.88 1.06
596 1 5.65 23.53 1.86
597 1 4.33 23.55 1.11
598 2 5.3 23.8 5.64
599 1 4.39 23.53 5.62
600 1 5.27 24.76 5.62
601 2 1.36 26.64 7.93
602 1 0.47 26.94 7.89
603 1 1.77 26.97 7.11
604 2 1.3 26.61 3.39
605 1 1.77 26.89 2.59
606 1 1.32 25.67 3.35
607 2 2.63 27.51 1.18
608 1 3.51 27.18 1.14
609 1 2.21 27.18 0.36
610 2 2.63 23 1.17
611 1 2.19 23.27 0.36
612 1 2.64 22.04 1.12
613 2 6.52 22.86 3.33
614 1 6.1 23.19 4.11
615 1 7.42 23.21 3.37
616 2 6.53 22.82 7.85
617 1 6.08 23.18 7.1
618 1 6.06 23.17 8.62
619 2 6.5 27.53 7.77
620 1 6.09 27.19 8.58
621 1 7.39 27.22 7.8
622 2 1.33 23.83 7.96
623 1 1.77 23.55 7.16
624 1 1.34 24.79 7.92
625 2 9.17 23.87 3.47
626 1 9.61 23.57 2.65
627 1 9.17 24.8 3.41
628 2 13.01 26.57 1.1
629 1 13.49 26.84 0.32
630 1 13.03 25.62 1.08
631 2 14.47 27.5 3.37
632 1 13.99 27.18 4.1
633 1 13.98 27.17 2.59
634 2 13.1 26.59 5.57
635 1 13.06 25.62 5.59
636 1 12.2 26.87 5.6
637 2 10.45 23.01 5.63
638 1 10.43 22.03 5.6
639 1 10.02 23.28 4.86
640 2 10.56 27.44 5.61
641 1 10.51 28.41 5.62
642 1 10.07 27.17 6.37
643 2 13.03 23.81 1.09
644 1 13.45 23.47 1.9
645 1 12.15 23.49 1.13
646 2 13.09 23.84 5.57
647 1 13.49 23.5 6.36
648 1 12.18 23.53 5.6
649 2 9.11 26.66 7.8
650 1 9.12 25.71 7.85
651 1 9.56 26.94 8.61
652 2 9.08 26.58 3.35
653 1 9.58 26.89 4.12
654 1 9.56 26.9 2.6
655 2 10.39 27.46 1.13
656 1 10.45 28.42 1.14
657 1 11.3 27.17 1.1
658 2 10.48 22.97 1.13
659 1 10.03 23.26 0.33
660 1 10.45 22.02 1.09
661 2 14.4 22.92 3.36
662 1 13.93 23.19 4.15
663 1 14.39 21.96 3.4
664 2 14.38 22.91 7.82
665 1 14.37 21.97 7.86
666 1 13.91 23.19 8.62
667 2 14.31 27.53 7.88
668 1 13.91 27.18 7.09
669 1 15.21 27.21 7.86
670 2 9.14 23.91 7.91
671 1 8.24 23.55 7.87
672 1 9.56 23.59 7.12
673 2 16.94 23.93 3.28
674 1 17.38 23.6 4.08
675 1 16.07 23.57 3.33
676 2 20.87 26.58 1.15
677 1 21.31 26.92 0.33
678 1 20.01 26.9 1.1
679 2 22.27 27.44 3.45
680 1 22.22 28.39 3.43
681 1 21.79 27.16 2.66
682 2 20.92 26.56 5.69
683 1 20.02 26.91 5.64
684 1 21.34 26.89 4.91
685 2 18.19 22.93 5.58
686 1 17.79 23.28 6.36
687 1 19.11 23.25 5.62
688 2 18.31 27.6 5.6
689 1 17.84 27.25 4.86
690 1 17.83 27.26 6.37
691 2 20.82 23.78 1.08
692 1 21.28 23.5 1.86
693 1 20.85 24.74 1.11
694 2 20.86 23.8 5.59
695 1 21.32 23.51 6.37
696 1 20.89 24.76 5.63
697 2 16.96 26.7 7.86
698 1 16.98 25.73 7.88
699 1 17.42 26.95 8.65
700 2 17.09 26.68 3.35
701 1 16.18 26.97 3.35
702 1 17.05 25.73 3.34
703 2 18.39 27.52 1.09
704 1 17.9 27.2 1.84
705 1 17.9 27.18 0.33
706 2 18.25 22.86 1.06
707 1 19.14 23.2 1.1
708 1 17.82 23.22 1.85
709 2 22.11 22.86 3.32
710 1 21.7 23.2 4.11
711 1 23.01 23.19 3.35
712 2 22.21 22.92 7.82
713 1 22.18 21.97 7.84
714 1 21.73 23.19 8.61
715 2 22.15 27.52 7.95
716 1 21.75 27.2 7.15
717 1 23.07 27.21 7.9
718 2 16.98 23.96 7.8
719 1 16.1 23.6 7.82
720 1 17.4 23.62 8.6
721 2 24.73 23.79 3.43
722 1 25.18 23.5 2.63
723 1 24.77 24.73 3.4
724 2 28.68 26.54 1.14
725 1 29.15 26.87 0.36
726 1 29.16 26.89 1.88
727 2 29.99 27.5 3.35
728 1 30.03 28.44 3.35
729 1 30.92 27.22 3.35
730 2 28.77 26.52 5.67
731 1 27.89 26.87 5.64
732 1 29.19 26.87 4.88
733 2 26.08 22.94 5.69
734 1 26.97 23.26 5.63
735 1 25.65 23.26 4.88
736 2 26.2 27.5 5.66
737 1 26.15 28.46 5.63
738 1 25.73 27.22 4.88
739 2 28.65 23.81 1.06
740 1 29.12 23.51 1.85
741 1 28.69 24.76 1.11
742 2 28.63 23.79 5.57
743 1 29.09 23.5 6.37
744 1 28.68 24.73 5.6
745 2 24.81 26.69 7.91
746 1 24.8 25.73 7.87
747 1 25.28 26.96 7.12
748 2 24.85 26.54 3.43
749 1 25.27 26.87 2.63
750 1 23.97 26.87 3.4
751 2 26.1 27.45 1.1
752 1 26.12 28.42 1.09
753 1 27 27.19 1.11
754 2 26.05 22.85 1.12
755 1 25.63 23.21 0.34
756 1 26.94 23.2 1.1
757 2 30.04 22.92 3.29
758 1 29.56 23.2 4.09
759 1 30.02 21.98 3.33
760 2 29.95 22.84 7.86
761 1 30.86 23.2 7.89
762 1 29.54 23.18 8.64
763 2 30.11 27.49 7.9
764 1 29.63 27.17 7.13
765 1 29.62 27.15 8.64
766 2 24.78 23.88 7.88
767 1 23.89 23.52 7.85
768 1 25.21 23.55 7.1
769 2 1.28 1.81 12.32
770 1 1.73 1.5 13.12
771 1 1.3 2.75 12.38
772 2 5.33 4.58 10.11
773 1 5.28 3.62 10.13
774 1 4.42 4.86 10.11
775 2 6.58 5.43 12.45
776 1 6.54 6.37 12.41
777 1 6.13 5.13 11.64
778 2 5.25 4.44 14.68
779 1 4.36 4.79 14.64
780 1 5.68 4.8 13.9
781 2 2.57 0.81 14.61
782 1 3.47 1.15 14.63
783 1 2.17 1.16 15.41
784 2 2.64 5.41 14.64
785 1 2.62 6.38 14.62
786 1 2.17 5.14 13.87
787 2 5.19 1.8 10.16
788 1 5.66 1.46 9.4
789 1 5.66 1.44 10.91
790 2 5.15 1.7 14.57
791 1 5.62 1.42 15.37
792 1 5.18 2.64 14.59
793 2 1.3 4.58 16.9
794 1 1.79 4.9 16.15
795 1 1.81 4.89 17.66
796 2 1.33 4.55 12.48
797 1 1.76 4.87 11.66
798 1 0.45 4.85 12.42
799 2 2.7 5.42 10.15
800 1 2.66 6.39 10.14
801 1 2.23 5.15 9.38
802 2 2.55 0.85 10.07
803 1 3.47 1.17 10.12
804 1 2.14 1.2 10.86
805 2 6.51 0.82 12.41
806 1 6.04 1.09 13.18
807 1 6.49 -0.15 12.44
808 2 6.56 0.9 16.91
809 1 6.09 1.18 17.7
810 1 6.53 -0.05 16.93
811 2 6.58 5.45 16.93
812 1 6.55 6.39 16.89
813 1 6.1 5.16 16.13
814 2 1.41 1.74 16.88
815 1 0.5 1.46 16.88
816 1 1.37 2.7 16.89
817 2 9.18 1.73 12.41
818 1 8.27 1.44 12.43
819 1 9.14 2.68 12.42
820 2 13.14 4.43 10.14
821 1 13.55 4.78 9.36
822 1 12.23 4.79 10.12
823 2 14.43 5.43 12.43
824 1 14.38 6.37 12.4
825 1 13.97 5.13 11.62
826 2 13.05 4.5 14.65
827 1 13.54 4.83 15.4
828 1 13.53 4.84 13.89
829 2 10.49 0.86 14.73
830 1 10.49 -0.08 14.68
831 1 10.02 1.15 13.92
832 2 10.43 5.49 14.64
833 1 11.34 5.15 14.68
834 1 10.03 5.17 15.43
835 2 13.1 1.7 10.2
836 1 12.18 1.44 10.17
837 1 13.09 2.66 10.16
838 2 13.09 1.68 14.62
839 1 12.19 1.42 14.64
840 1 13.06 2.65 14.63
841 2 9.21 4.65 16.92
842 1 9.17 3.69 16.9
843 1 8.29 4.93 16.91
844 2 9.16 4.55 12.38
845 1 9.58 4.87 13.18
846 1 8.27 4.88 12.42
847 2 10.5 5.49 10.14
848 1 10.01 5.16 10.89
849 1 10.02 5.17 9.38
850 2 10.49 0.86 10.11
851 1 10.01 1.21 9.37
852 1 10.01 1.18 10.88
853 2 14.4 0.82 12.4
854 1 13.91 1.14 13.16
855 1 13.91 1.15 11.65
856 2 14.32 0.79 17.01
857 1 15.2 1.13 16.96
858 1 13.89 1.1 16.2
859 2 14.45 5.39 16.84
860 1 14.39 6.35 16.86
861 1 14 5.11 17.63
862 2 9.16 1.9 16.93
863 1 8.27 1.53 16.91
864 1 9.58 1.52 16.16
865 2 17.07 1.8 12.42
866 1 16.13 1.5 12.41
867 1 17.02 2.72 12.4
868 2 20.95 4.48 10.14
869 1 20.06 4.82 10.16
870 1 21.36 4.82 10.93
871 2 22.27 5.4 12.39
872 1 22.21 6.36 12.42
873 1 21.81 5.11 13.16
874 2 20.9 4.54 14.59
875 1 20.9 3.59 14.64
876 1 21.38 4.82 15.38
877 2 18.3 0.92 14.67
878 1 18.29 -0.05 14.63
879 1 17.85 1.19 13.88
880 2 18.27 5.55 14.59
881 1 19.16 5.19 14.62
882 1 17.84 5.2 15.37
883 2 20.93 1.71 10.15
884 1 20.01 1.44 10.15
885 1 20.9 2.66 10.16
886 2 20.89 1.85 14.71
887 1 20 1.52 14.68
888 1 21.31 1.51 13.91
889 2 17.02 4.57 16.91
890 1 16.97 3.61 16.9
891 1 16.11 4.85 16.9
892 2 17.06 4.47 12.31
893 1 17.47 4.82 13.1
894 1 16.16 4.81 12.34
895 2 18.36 5.47 10.1
896 1 17.88 5.13 10.86
897 1 17.87 5.15 9.34
898 2 18.31 0.79 10.15
899 1 17.83 1.15 9.39
900 1 17.86 1.15 10.9
901 2 22.09 0.81 12.4
902 1 21.71 1.15 11.63
903 1 23.02 1.15 12.39
904 2 22.24 0.79 16.87
905 1 21.76 1.15 16.14
906 1 21.77 1.13 17.65
907 2 22.23 5.47 16.8
908 1 21.79 5.13 17.61
909 1 23.1 5.15 16.86
910 2 16.88 1.84 16.88
911 1 17.36 1.51 16.13
912 1 17.36 1.5 17.64
913 2 24.81 1.72 12.49
914 1 25.26 1.45 11.68
915 1 24.82 2.67 12.46
916 2 28.8 4.52 10.13
917 1 28.74 3.58 10.12
918 1 27.89 4.83 10.12
919 2 30.07 5.34 12.44
920 1 30.05 6.31 12.41
921 1 29.63 5.07 11.66
922 2 28.67 4.48 14.69
923 1 29.16 4.82 15.44
924 1 29.15 4.8 13.93
925 2 26.09 0.79 14.71
926 1 26.98 1.15 14.68
927 1 25.67 1.13 13.93
928 2 26.12 5.56 14.68
929 1 27.01 5.19 14.66
930 1 25.69 5.19 13.91
931 2 28.6 1.74 10.11
932 1 29.09 1.43 9.35
933 1 29.08 1.41 10.87
934 2 28.66 1.78 14.61
935 1 29.13 1.48 15.4
936 1 28.69 2.72 14.65
937 2 24.79 4.58 16.99
938 1 24.8 3.64 16.94
939 1 25.25 4.88 16.19
940 2 24.85 4.48 12.49
941 1 23.97 4.81 12.46
942 1 25.26 4.82 11.68
943 2 26.12 5.45 10.16
944 1 26.08 6.41 10.14
945 1 25.66 5.18 9.37
946 2 26.08 0.93 10.12
947 1 26.98 1.19 10.12
948 1 26.11 -0.05 10.13
949 2 29.93 0.77 12.32
950 1 29.52 1.12 13.1
951 1 30.82 1.13 12.34
952 2 30.04 0.89 16.84
953 1 30.04 -0.06 16.88
954 1 29.58 1.16 17.63
955 2 30.01 5.41 16.95
956 1 30.02 6.37 16.92
957 1 30.92 5.15 16.93
958 2 24.8 1.83 16.95
959 1 23.91 1.48 16.91
960 1 25.23 1.48 16.17
961 2 1.35 9.09 12.41
962 1 0.44 8.82 12.4
963 1 1.32 10.05 12.4
964 2 5.29 11.95 10.17
965 1 5.25 10.97 10.16
966 1 4.41 12.22 10.17
967 2 6.56 12.86 12.46
968 1 7.46 12.52 12.41
969 1 6.14 12.53 11.67
970 2 5.23 11.8 14.73
971 1 4.35 12.15 14.68
972 1 5.68 12.15 13.95
973 2 2.59 8.2 14.68
974 1 3.49 8.52 14.65
975 1 2.18 8.53 13.89
976 2 2.64 12.77 14.55
977 1 2.62 13.74 14.6
978 1 2.22 12.48 15.35
979 2 5.23 9.11 10.18
980 1 5.63 8.76 9.38
981 1 4.33 8.79 10.15
982 2 5.21 9.04 14.63
983 1 5.67 8.76 15.41
984 1 5.22 10 14.66
985 2 1.37 11.92 16.84
986 1 1.38 10.97 16.89
987 1 1.81 12.2 17.65
988 2 1.4 11.84 12.33
989 1 1.8 12.19 13.12
990 1 0.49 12.16 12.36
991 2 2.75 12.85 10.18
992 1 2.27 12.51 10.91
993 1 2.26 12.54 9.39
994 2 2.67 8.22 10.21
995 1 2.18 8.56 9.42
996 1 2.19 8.54 10.94
997 2 6.53 8.14 12.38
998 1 6.06 8.48 13.15
999 1 6.05 8.48 11.63
1000 2 6.54 8.13 16.88
1001 1 7.44 8.48 16.9
1002 1 6.13 8.46 17.66
1003 2 6.55 12.81 16.9
1004 1 6.12 12.46 16.13
1005 1 7.45 12.47 16.86
1006 2 1.35 9.18 16.91
1007 1 0.45 8.84 16.88
1008 1 1.76 8.85 16.13
1009 2 9.14 9.16 12.41
1010 1 8.24 8.81 12.43
1011 1 9.55 8.82 13.19
1012 2 13.08 11.86 10.14
1013 1 13.08 10.91 10.12
1014 1 13.53 12.12 9.33
1015 2 14.39 12.77 12.43
1016 1 14.36 13.71 12.39
1017 1 13.94 12.48 11.62
1018 2 13.04 11.91 14.67
1019 1 13.07 10.95 14.65
1020 1 13.5 12.18 13.88
1021 2 10.45 8.28 14.63
1022 1 10.01 8.55 15.41
1023 1 10.44 7.3 14.67
1024 2 10.43 12.91 14.73
1025 1 11.32 12.56 14.7
1026 1 10.01 12.57 13.94
1027 2 13.02 9.15 10.25
1028 1 13.45 8.82 9.44
1029 1 12.15 8.81 10.21
1030 2 13.1 9.13 14.75
1031 1 13.5 8.79 13.95
1032 1 12.19 8.82 14.71
1033 2 9.15 11.84 16.89
1034 1 9.6 12.2 16.15
1035 1 9.62 12.19 17.67
1036 2 9.18 11.93 12.42
1037 1 9.62 12.19 11.63
1038 1 9.18 10.96 12.4
1039 2 10.41 12.83 10.21
1040 1 11.32 12.49 10.16
1041 1 9.99 12.51 9.43
1042 2 10.48 8.2 10.12
1043 1 10.46 7.26 10.15
1044 1 10.01 8.48 10.92
1045 2 14.3 8.13 12.48
1046 1 13.86 8.46 11.71
1047 1 15.19 8.49 12.44
1048 2 14.34 8.2 16.89
1049 1 13.87 8.53 16.15
1050 1 13.85 8.53 17.66
1051 2 14.37 12.86 16.98
1052 1 13.95 12.51 16.18
1053 1 15.26 12.53 16.94
1054 2 9.17 9.09 16.83
1055 1 9.61 8.81 17.63
1056 1 9.18 10.04 16.87
1057 2 16.89 9.15 12.31
1058 1 17.35 8.85 13.1
1059 1 16.93 10.1 12.37
1060 2 20.92 11.87 10.13
1061 1 20.87 10.91 10.15
1062 1 20.01 12.15 10.15
1063 2 22.17 12.77 12.45
1064 1 21.76 12.44 11.65
1065 1 23.07 12.47 12.4
1066 2 20.91 11.92 14.69
1067 1 20.9 10.96 14.66
1068 1 21.36 12.18 13.89
1069 2 18.25 8.22 14.59
1070 1 17.82 8.51 15.4
1071 1 18.25 7.27 14.64
1072 2 18.3 12.82 14.65
1073 1 19.2 12.47 14.6
1074 1 17.88 12.49 13.86
1075 2 20.9 9.13 10.23
1076 1 21.3 8.81 9.43
1077 1 19.99 8.79 10.2
1078 2 20.87 9.19 14.62
1079 1 21.29 8.84 15.4
1080 1 19.98 8.83 14.65
1081 2 16.96 11.88 16.94
1082 1 17.45 12.21 16.16
1083 1 17.43 12.23 17.67
1084 2 16.98 11.92 12.47
1085 1 16.09 12.24 12.41
1086 1 17.41 12.23 11.67
1087 2 18.34 12.74 10.22
1088 1 18.31 13.7 10.19
1089 1 17.9 12.47 9.42
1090 2 18.28 8.21 10.14
1091 1 18.26 7.25 10.18
1092 1 17.8 8.49 10.92
1093 2 22.17 8.19 12.43
1094 1 21.68 8.54 13.19
1095 1 21.69 8.52 11.67
1096 2 22.13 8.25 16.89
1097 1 23.03 8.54 16.91
1098 1 22.19 7.28 16.88
1099 2 22.28 12.73 16.93
1100 1 22.24 13.68 16.92
1101 1 21.82 12.46 16.14
1102 2 17.07 9.1 16.89
1103 1 16.14 8.83 16.89
1104 1 17.04 10.04 16.91
1105 2 24.83 9.24 12.39
1106 1 23.92 8.89 12.42
1107 1 25.24 8.88 13.16
1108 2 28.76 11.85 10.19
1109 1 29.18 12.18 9.4
1110 1 27.87 12.21 10.15
1111 2 30.09 12.76 12.34
1112 1 29.6 12.46 13.12
1113 1 29.59 12.44 11.61
1114 2 28.78 11.89 14.64
1115 1 29.17 12.21 15.42
1116 1 27.86 12.24 14.66
1117 2 26.12 8.25 14.62
1118 1 25.64 8.53 15.43
1119 1 26.11 7.31 14.66
1120 2 26.13 12.81 14.57
1121 1 26.11 13.77 14.62
1122 1 25.67 12.52 15.36
1123 2 28.7 9.02 10.14
1124 1 27.79 8.78 10.16
1125 1 28.69 10 10.14
1126 2 28.78 9.12 14.66
1127 1 27.86 8.84 14.66
1128 1 28.74 10.07 14.67
1129 2 24.8 11.9 16.83
1130 1 23.93 12.21 16.88
1131 1 25.22 12.22 17.66
1132 2 24.83 11.98 12.36
1133 1 25.28 12.26 13.15
1134 1 24.83 11.01 12.41
1135 2 26.16 12.82 10.1
1136 1 26.13 13.77 10.14
1137 1 25.71 12.53 10.9
1138 2 26.12 8.21 10.2
1139 1 25.64 8.55 9.43
1140 1 25.65 8.56 10.94
1141 2 30.08 8.19 12.38
1142 1 29.6 8.53 13.14
1143 1 29.58 8.5 11.63
1144 2 30.05 8.19 16.87
1145 1 29.57 8.53 16.14
1146 1 29.55 8.5 17.65
1147 2 29.95 12.72 16.88
1148 1 29.98 13.66 16.88
1149 1 30.88 12.45 16.88
1150 2 24.72 9.13 16.89
1151 1 25.2 8.85 17.68
1152 1 24.75 10.08 16.92
1153 2 1.42 16.44 12.42
1154 1 0.48 16.16 12.42
1155 1 1.38 17.38 12.4
1156 2 5.27 19.3 10.11
1157 1 5.26 18.32 10.16
1158 1 5.71 19.57 10.89
1159 2 6.55 20.1 12.29
1160 1 6.53 21.03 12.35
1161 1 6.1 19.8 13.11
1162 2 5.21 19.23 14.64
1163 1 5.23 18.29 14.68
1164 1 5.69 19.52 15.43
1165 2 2.65 15.58 14.65
1166 1 2.15 15.92 15.42
1167 1 2.18 15.91 13.9
1168 2 2.56 20.14 14.64
1169 1 2.61 21.09 14.64
1170 1 3.47 19.85 14.66
1171 2 5.24 16.51 10.14
1172 1 5.65 16.17 10.93
1173 1 4.34 16.18 10.18
1174 2 5.24 16.54 14.59
1175 1 5.66 16.19 15.4
1176 1 4.36 16.22 14.63
1177 2 1.36 19.28 16.93
1178 1 1.36 18.32 16.89
1179 1 1.8 19.55 16.13
1180 2 1.38 19.19 12.32
1181 1 1.79 19.53 13.11
1182 1 0.49 19.53 12.34
1183 2 2.61 20.21 10.11
1184 1 3.52 19.88 10.14
1185 1 2.2 19.86 10.88
1186 2 2.6 15.63 10.15
1187 1 2.62 14.66 10.19
1188 1 2.17 15.89 10.94
1189 2 6.52 15.61 12.39
1190 1 6.06 15.88 13.18
1191 1 6.52 14.64 12.43
1192 2 6.5 15.56 16.96
1193 1 7.42 15.87 16.94
1194 1 6.55 14.62 16.93
1195 2 6.62 20.14 16.83
1196 1 6.57 21.09 16.88
1197 1 6.15 19.84 17.62
1198 2 1.31 16.54 16.9
1199 1 0.42 16.18 16.91
1200 1 1.73 16.19 17.68
1201 2 9.18 16.46 12.4
1202 1 8.25 16.2 12.41
1203 1 9.15 17.41 12.39
1204 2 13.05 19.24 10.11
1205 1 13.06 18.28 10.16
1206 1 13.52 19.52 10.89
1207 2 14.45 20.11 12.29
1208 1 14.42 21.05 12.34
1209 1 13.97 19.82 13.09
1210 2 13.05 19.22 14.61
1211 1 13.49 19.53 15.4
1212 1 12.17 19.57 14.66
1213 2 10.51 15.65 14.75
1214 1 10.48 14.7 14.72
1215 1 10.04 15.93 13.95
1216 2 10.5 20.25 14.69
1217 1 10.04 19.89 13.91
1218 1 10.03 19.9 15.42
1219 2 13.06 16.46 10.11
1220 1 13.48 16.12 10.91
1221 1 12.16 16.15 10.16
1222 2 13.1 16.46 14.71
1223 1 12.19 16.18 14.7
1224 1 13.06 17.42 14.69
1225 2 9.19 19.23 16.82
1226 1 8.31 19.56 16.86
1227 1 9.61 19.56 17.64
1228 2 9.24 19.22 12.41
1229 1 8.32 19.53 12.37
1230 1 9.64 19.55 11.63
1231 2 10.41 20.21 10.16
1232 1 11.32 19.85 10.13
1233 1 10.01 19.89 9.38
1234 2 10.43 15.62 10.15
1235 1 10.42 14.65 10.18
1236 1 9.98 15.89 10.93
1237 2 14.34 15.46 12.38
1238 1 13.92 15.82 13.16
1239 1 15.23 15.83 12.41
1240 2 14.4 15.6 17
1241 1 13.94 15.89 16.21
1242 1 14.39 14.65 16.96
1243 2 14.44 20.06 16.86
1244 1 14.41 21.02 16.9
1245 1 13.98 19.78 17.65
1246 2 9.16 16.51 16.95
1247 1 9.62 16.22 16.17
1248 1 9.18 17.46 16.9
1249 2 16.96 16.57 12.42
1250 1 17.42 16.21 13.18
1251 1 17.42 16.22 11.67
1252 2 20.95 19.17 10.14
1253 1 21.36 19.52 10.91
1254 1 20.04 19.53 10.16
1255 2 22.19 20.13 12.33
1256 1 22.17 21.09 12.37
1257 1 21.74 19.85 13.13
1258 2 20.96 19.29 14.63
1259 1 20.91 18.32 14.64
1260 1 20.06 19.57 14.63
1261 2 18.29 15.58 14.62
1262 1 17.83 15.86 15.4
1263 1 18.28 14.62 14.65
1264 2 18.4 20.19 14.63
1265 1 17.91 19.88 13.87
1266 1 17.91 19.87 15.38
1267 2 20.84 16.4 10.19
1268 1 21.31 16.12 9.41
1269 1 20.88 17.36 10.17
1270 2 20.87 16.53 14.71
1271 1 19.99 16.19 14.67
1272 1 21.3 16.17 13.92
1273 2 17.06 19.32 16.85
1274 1 17.03 18.36 16.85
1275 1 16.15 19.59 16.87
1276 2 17.03 19.34 12.38
1277 1 16.13 19.6 12.37
1278 1 17.01 18.37 12.39
1279 2 18.33 20.24 10.18
1280 1 17.85 19.9 10.92
1281 1 17.84 19.89 9.41
1282 2 18.24 15.55 10.23
1283 1 17.82 15.89 9.42
1284 1 19.13 15.86 10.19
1285 2 22.23 15.54 12.45
1286 1 21.76 15.82 11.66
1287 1 22.2 14.59 12.41
1288 2 22.15 15.48 17
1289 1 21.72 15.82 16.22
1290 1 23.04 15.84 16.96
1291 2 22.23 20.16 16.9
1292 1 22.18 21.1 16.88
1293 1 21.76 19.88 16.1
1294 2 16.99 16.54 16.81
1295 1 16.12 16.21 16.87
1296 1 17.42 16.23 17.63
1297 2 24.82 16.47 12.39
1298 1 23.91 16.19 12.39
1299 1 24.78 17.43 12.38
1300 2 28.62 19.14 10.13
1301 1 29.1 19.48 9.36
1302 1 29.09 19.49 10.88
1303 2 30.07 20.14 12.31
1304 1 30.03 21.09 12.36
1305 1 29.61 19.83 13.1
1306 2 28.77 19.22 14.63
1307 1 28.7 18.28 14.64
1308 1 27.85 19.53 14.63
1309 2 26.13 15.58 14.71
1310 1 25.66 15.93 15.44
1311 1 25.65 15.91 13.93
1312 2 26.17 20.16 14.68
1313 1 26.14 21.11 14.66
1314 1 25.72 19.88 13.88
1315 2 28.65 16.38 10.2
1316 1 29.11 16.11 9.41
1317 1 28.66 17.34 10.17
1318 2 28.69 16.55 14.7
1319 1 29.1 16.18 13.91
1320 1 27.79 16.21 14.68
1321 2 24.89 19.21 16.94
1322 1 23.99 19.55 16.9