LAMMPS Description

         2304  atoms
           2  atom types
         0 38.2909 xlo xhi
         0 25.5273 ylo yhi
         0 25.5273 zlo zhi

Masses

  2 15.9994
  1  1.0080

Atoms

1 2 0.02 -0.04 -0.02
2 1 -0.53 -0.56 0.56
3 1 0.55 0.5 0.57
4 2 3.12 3.23 -0.03
5 1 3.72 2.68 -0.55
6 1 3.69 3.75 0.52
7 2 3.14 -0.01 3.23
8 1 3.69 -0.55 2.64
9 1 2.62 0.52 2.65
10 2 0.1 3.16 3.22
11 1 -0.5 2.64 3.75
12 1 -0.47 3.71 2.68
13 2 1.58 1.5 1.62
14 1 1.07 2.07 2.15
15 1 2.12 2.1 1.07
16 2 4.74 4.83 1.58
17 1 5.29 4.26 2.16
18 1 4.23 5.34 2.17
19 2 4.83 1.59 4.8
20 1 5.34 2.12 4.22
21 1 4.26 1.05 4.22
22 2 1.65 4.84 4.81
23 1 1.1 4.24 4.27
24 1 2.16 4.26 5.35
25 2 6.37 -0.05 -0.03
26 1 5.83 -0.57 0.55
27 1 6.91 0.49 0.56
28 2 9.59 3.22 0.07
29 1 9.07 3.75 -0.51
30 1 10.13 2.66 -0.52
31 2 9.61 0.04 3.08
32 1 9.06 -0.5 3.67
33 1 10.14 0.56 3.65
34 2 6.27 3.16 3.15
35 1 6.86 3.72 3.69
36 1 6.86 2.63 2.64
37 2 7.93 1.58 1.64
38 1 8.52 1.06 2.15
39 1 8.51 2.14 1.08
40 2 11.2 4.78 1.55
41 1 10.61 5.33 2.09
42 1 10.62 4.25 1.03
43 2 11.12 1.59 4.75
44 1 11.69 2.12 4.21
45 1 11.72 1.08 5.31
46 2 7.95 4.83 4.74
47 1 8.54 5.35 4.22
48 1 8.54 4.27 5.28
49 2 12.72 0.06 0.01
50 1 13.25 -0.53 -0.53
51 1 12.19 -0.52 0.55
52 2 16 3.21 -0.03
53 1 15.42 3.73 -0.55
54 1 15.41 2.66 0.52
55 2 15.89 0.01 3.18
56 1 16.48 0.55 3.73
57 1 16.47 -0.52 2.66
58 2 12.73 3.16 3.22
59 1 12.2 3.7 2.62
60 1 13.27 2.63 2.64
61 2 14.34 1.63 1.6
62 1 14.88 1.05 2.13
63 1 13.8 1.05 1.07
64 2 17.56 4.78 1.64
65 1 17.01 4.25 1.06
66 1 18.08 5.33 1.05
67 2 17.56 1.57 4.82
68 1 18.11 2.16 4.29
69 1 17.01 2.14 5.33
70 2 14.38 4.77 4.78
71 1 13.8 4.24 4.24
72 1 13.8 5.32 5.3
73 2 19.23 0.02 -0.01
74 1 18.65 0.54 -0.55
75 1 18.64 -0.51 0.54
76 2 22.26 3.22 0
77 1 22.85 2.68 -0.53
78 1 22.85 3.75 0.55
79 2 22.44 -0.05 3.18
80 1 21.86 -0.56 3.71
81 1 21.85 0.51 2.64
82 2 19.19 3.21 3.3
83 1 18.64 3.74 2.71
84 1 19.71 2.67 2.71
85 2 20.72 1.62 1.63
86 1 21.26 2.16 1.05
87 1 20.19 1.08 1.04
88 2 23.94 4.69 1.59
89 1 23.4 5.29 2.14
90 1 24.45 5.28 1.05
91 2 23.96 1.58 4.86
92 1 24.49 2.12 4.27
93 1 23.43 1.04 4.28
94 2 20.73 4.89 4.8
95 1 20.21 4.31 4.26
96 1 21.27 4.3 5.34
97 2 25.54 -0.01 -0.06
98 1 25.02 -0.55 0.53
99 1 26.08 0.53 0.52
100 2 28.67 3.22 0.04
101 1 29.23 2.63 -0.51
102 1 28.16 2.63 0.57
103 2 28.61 0.04 3.21
104 1 29.2 0.56 3.73
105 1 29.19 -0.5 2.66
106 2 25.54 3.15 3.15
107 1 26.08 3.74 3.7
108 1 25.01 3.73 2.64
109 2 27.15 1.62 1.53
110 1 26.61 2.16 2.11
111 1 27.67 1.08 2.13
112 2 30.31 4.79 1.66
113 1 29.76 4.24 1.07
114 1 30.84 5.3 1.07
115 2 30.35 1.51 4.74
116 1 30.87 2.09 4.22
117 1 29.79 2.1 5.28
118 2 27.1 4.78 4.81
119 1 27.69 5.32 4.27
120 1 27.69 4.25 5.35
121 2 31.93 0 0.03
122 1 32.45 -0.53 -0.56
123 1 31.39 0.55 -0.55
124 2 35.14 3.19 0.01
125 1 34.56 3.72 -0.53
126 1 34.55 2.65 0.55
127 2 35.13 -0.08 3.18
128 1 35.65 0.5 3.72
129 1 34.58 0.5 2.65
130 2 31.95 3.16 3.15
131 1 32.46 3.74 3.7
132 1 31.4 3.74 2.62
133 2 33.54 1.61 1.6
134 1 32.95 2.15 2.12
135 1 32.95 1.07 1.05
136 2 36.75 4.81 1.69
137 1 36.18 4.27 1.1
138 1 37.26 5.33 1.11
139 2 36.67 1.6 4.73
140 1 36.15 2.15 5.32
141 1 37.22 1.07 5.31
142 2 33.39 4.79 4.78
143 1 33.97 5.34 4.25
144 1 33.98 4.26 5.32
145 2 -0.08 6.36 0.04
146 1 0.51 5.84 -0.49
147 1 0.51 6.91 0.58
148 2 3.14 9.55 -0.09
149 1 3.69 10.09 0.48
150 1 2.62 9.03 0.51
151 2 3.24 6.33 3.12
152 1 2.71 5.81 3.71
153 1 3.77 6.9 3.7
154 2 -0.02 9.59 3.15
155 1 0.51 10.11 3.74
156 1 -0.55 9.04 3.72
157 2 1.61 8.02 1.57
158 1 1.08 8.53 2.16
159 1 2.15 7.46 2.16
160 2 4.74 11.06 1.55
161 1 4.23 11.65 2.11
162 1 5.31 11.65 1.04
163 2 4.76 8.03 4.77
164 1 5.34 8.55 4.23
165 1 5.36 7.48 5.31
166 2 1.55 11.13 4.76
167 1 2.11 10.61 5.35
168 1 1.04 11.69 5.34
169 2 6.44 6.35 0.01
170 1 5.86 6.89 -0.53
171 1 5.85 5.84 0.56
172 2 9.54 9.57 -0.05
173 1 10.13 9.02 -0.56
174 1 10.11 10.11 0.49
175 2 9.56 6.35 3.15
176 1 10.09 6.94 3.69
177 1 9.02 6.94 2.62
178 2 6.34 9.6 3.22
179 1 5.81 10.11 2.63
180 1 6.88 9.05 2.64
181 2 7.94 7.95 1.64
182 1 8.49 8.49 1.04
183 1 7.42 7.42 1.06
184 2 11.09 11.2 1.57
185 1 11.68 10.65 2.12
186 1 11.66 11.71 1.03
187 2 11.06 7.94 4.77
188 1 11.66 8.49 4.24
189 1 11.64 7.42 5.31
190 2 7.95 11.2 4.86
191 1 7.41 10.66 4.27
192 1 8.49 11.72 4.29
193 2 12.74 6.43 -0.07
194 1 12.21 5.89 0.51
195 1 13.29 6.96 0.51
196 2 16 9.49 -0.02
197 1 15.45 10.06 -0.55
198 1 16.51 10.08 0.52
199 2 16.01 6.41 3.23
200 1 15.44 5.82 3.74
201 1 16.52 5.82 2.68
202 2 12.74 9.56 3.23
203 1 13.32 10.08 3.77
204 1 13.34 9.04 2.67
205 2 14.33 8.03 1.56
206 1 14.92 7.47 2.11
207 1 14.92 8.53 1.03
208 2 17.49 11.2 1.62
209 1 18.07 10.64 2.15
210 1 18.09 11.71 1.07
211 2 17.65 7.93 4.83
212 1 17.07 7.4 4.29
213 1 17.06 8.49 5.34
214 2 14.32 11.06 4.84
215 1 14.88 11.64 4.29
216 1 13.82 11.64 5.36
217 2 19.11 6.35 -0.05
218 1 18.58 6.93 -0.57
219 1 19.65 6.94 0.5
220 2 22.29 9.53 0.08
221 1 21.78 10.08 -0.51
222 1 22.85 9.01 -0.5
223 2 22.31 6.37 3.17
224 1 21.78 5.85 3.76
225 1 22.87 6.91 3.75
226 2 19.11 9.61 3.19
227 1 18.6 9.02 3.74
228 1 19.65 9.03 2.65
229 2 20.65 7.98 1.59
230 1 21.24 7.44 2.14
231 1 21.24 8.5 1.06
232 2 23.98 11.12 1.62
233 1 23.4 11.68 2.15
234 1 23.39 10.59 1.09
235 2 23.97 7.9 4.78
236 1 24.48 8.47 4.26
237 1 23.41 8.49 5.33
238 2 20.76 11.19 4.76
239 1 20.17 10.64 4.24
240 1 20.18 11.71 5.31
241 2 25.49 6.28 -0.03
242 1 24.97 6.87 -0.55
243 1 26.04 6.86 0.52
244 2 28.74 9.57 0.08
245 1 28.2 10.09 -0.49
246 1 29.26 9.02 -0.51
247 2 28.62 6.35 3.22
248 1 29.21 6.9 3.74
249 1 29.19 5.83 2.68
250 2 25.48 9.55 3.29
251 1 24.95 10.07 2.7
252 1 26.03 9.01 2.71
253 2 27.08 7.95 1.63
254 1 27.65 7.42 2.16
255 1 27.67 8.49 1.09
256 2 30.28 11.17 1.67
257 1 29.76 10.63 1.09
258 1 30.81 11.72 1.08
259 2 30.36 7.93 4.77
260 1 30.88 8.53 4.22
261 1 29.82 8.5 5.3
262 2 27.13 11.14 4.9
263 1 26.57 10.61 4.33
264 1 27.65 11.67 4.3
265 2 31.9 6.34 0.11
266 1 32.45 5.81 -0.47
267 1 31.36 6.87 -0.48
268 2 35.07 9.58 -0.05
269 1 35.67 9.05 -0.56
270 1 35.65 10.12 0.51
271 2 35.13 6.42 3.27
272 1 35.67 5.88 2.68
273 1 34.58 6.94 2.68
274 2 31.89 9.62 3.21
275 1 31.35 10.13 2.62
276 1 32.42 9.06 2.63
277 2 33.49 7.96 1.7
278 1 34.03 8.5 1.09
279 1 32.96 7.43 1.13
280 2 36.58 11.18 1.6
281 1 37.16 10.65 2.14
282 1 37.17 11.71 1.05
283 2 36.68 8 4.75
284 1 36.16 7.43 4.23
285 1 37.21 7.4 5.31
286 2 33.52 11.19 4.74
287 1 32.98 10.6 4.21
288 1 34.03 10.6 5.3
289 2 0 12.77 0.02
290 1 0.53 12.23 -0.56
291 1 -0.55 13.29 -0.57
292 2 3.19 15.91 -0.1
293 1 3.72 16.47 0.48
294 1 2.66 15.39 0.48
295 2 3.27 12.75 3.22
296 1 2.68 12.21 3.75
297 1 2.69 13.28 2.68
298 2 0.05 15.9 3.24
299 1 0.57 16.49 3.77
300 1 -0.49 16.49 2.69
301 2 1.65 14.35 1.59
302 1 1.07 14.88 2.13
303 1 1.05 13.83 1.05
304 2 4.72 17.58 1.57
305 1 5.31 17.03 2.11
306 1 5.31 18.12 1.06
307 2 4.77 14.45 4.79
308 1 4.24 13.87 4.26
309 1 5.31 13.86 5.33
310 2 1.61 17.54 4.75
311 1 2.15 17.02 5.33
312 1 1.06 18.07 5.33
313 2 6.43 12.66 0.03
314 1 5.89 13.24 -0.51
315 1 6.96 13.25 0.56
316 2 9.57 15.93 0.11
317 1 9.05 16.48 -0.47
318 1 10.11 15.4 -0.48
319 2 9.54 12.75 3.27
320 1 10.09 12.22 2.68
321 1 9.02 13.29 2.7
322 2 6.35 15.93 3.12
323 1 6.9 16.48 3.7
324 1 5.82 15.41 3.71
325 2 8.02 14.28 1.63
326 1 7.46 14.86 2.15
327 1 8.54 14.86 1.1
328 2 11.21 17.57 1.63
329 1 10.61 18.11 2.15
330 1 10.63 17.02 1.1
331 2 11.13 14.38 4.84
332 1 11.66 14.91 4.25
333 1 10.6 13.84 4.26
334 2 7.98 17.57 4.71
335 1 8.53 17.01 5.29
336 1 7.46 18.08 5.3
337 2 12.69 12.73 -0.04
338 1 13.28 12.2 -0.57
339 1 13.27 13.27 0.5
340 2 15.91 15.85 0
341 1 15.39 16.42 -0.53
342 1 16.48 16.44 0.53
343 2 15.93 12.72 3.19
344 1 16.52 13.28 3.72
345 1 16.51 12.21 2.66
346 2 12.72 15.97 3.23
347 1 12.19 16.5 2.65
348 1 13.26 15.42 2.64
349 2 14.26 14.33 1.58
350 1 14.86 13.79 2.12
351 1 14.83 14.86 1.05
352 2 17.51 17.58 1.55
353 1 18.11 17.03 2.1
354 1 18.09 18.11 1.04
355 2 17.57 14.3 4.76
356 1 18.11 14.89 4.22
357 1 17.04 14.88 5.3
358 2 14.41 17.59 4.81
359 1 13.84 17.05 4.23
360 1 14.93 18.1 4.22
361 2 19.17 12.72 0.05
362 1 19.71 12.2 -0.53
363 1 18.64 13.27 -0.54
364 2 22.39 15.88 -0.01
365 1 21.82 16.48 -0.54
366 1 22.9 16.46 0.52
367 2 22.38 12.81 3.22
368 1 21.79 12.26 3.74
369 1 21.8 13.33 2.67
370 2 19.11 15.97 3.16
371 1 19.7 16.5 3.71
372 1 19.7 15.43 2.64
373 2 20.71 14.36 1.65
374 1 21.27 14.89 1.07
375 1 20.2 13.81 1.07
376 2 23.83 17.52 1.55
377 1 24.42 17.01 2.1
378 1 24.41 18.07 1.02
379 2 24.01 14.35 4.83
380 1 23.42 13.83 4.29
381 1 23.43 14.88 5.37
382 2 20.71 17.54 4.72
383 1 21.26 17 5.3
384 1 20.19 18.08 5.3
385 2 25.64 12.72 -0.01
386 1 25.06 13.25 -0.54
387 1 25.04 12.19 0.53
388 2 28.72 16.03 0.03
389 1 29.25 15.44 -0.53
390 1 28.19 15.45 0.55
391 2 28.68 12.72 3.21
392 1 29.22 12.2 2.63
393 1 28.16 13.28 2.62
394 2 25.52 16 3.13
395 1 26.06 16.52 3.7
396 1 24.99 15.45 3.73
397 2 27.19 14.4 1.56
398 1 26.6 14.93 2.1
399 1 26.62 13.84 1.04
400 2 30.3 17.58 1.59
401 1 30.84 16.99 2.13
402 1 29.77 17 1.06
403 2 30.27 14.38 4.74
404 1 29.74 13.8 4.21
405 1 30.82 13.8 5.28
406 2 27.08 17.56 4.75
407 1 27.67 18.09 4.22
408 1 27.66 17.04 5.3
409 2 31.86 12.75 0
410 1 31.34 13.32 -0.54
411 1 32.41 13.34 0.53
412 2 35.06 16 -0.02
413 1 35.63 16.51 0.57
414 1 34.54 15.45 0.56
415 2 35.14 12.84 3.18
416 1 34.58 12.25 3.72
417 1 35.65 12.27 2.64
418 2 31.93 15.93 3.13
419 1 32.46 16.46 3.73
420 1 31.38 15.4 3.71
421 2 33.52 14.4 1.52
422 1 32.98 14.91 2.11
423 1 34.07 13.85 2.1
424 2 36.73 17.45 1.61
425 1 36.19 18.04 2.15
426 1 37.24 18.04 1.06
427 2 36.73 14.36 4.87
428 1 37.27 14.9 4.3
429 1 36.19 13.83 4.28
430 2 33.48 17.54 4.78
431 1 34.07 18.08 4.25
432 1 34.07 17 5.31
433 2 -0.05 19.08 -0.03
434 1 -0.57 19.65 -0.55
435 1 0.49 19.68 0.52
436 2 3.28 22.29 0.02
437 1 2.7 22.85 -0.53
438 1 2.68 21.79 0.56
439 2 3.23 19.19 3.22
440 1 2.69 18.6 3.75
441 1 3.75 18.61 2.67
442 2 0.03 22.31 3.17
443 1 0.56 22.89 3.72
444 1 -0.51 22.9 2.64
445 2 1.57 20.79 1.55
446 1 1.06 21.31 2.13
447 1 2.12 20.23 2.14
448 2 4.75 23.97 1.6
449 1 5.31 23.39 2.12
450 1 4.23 23.38 1.06
451 2 4.79 20.82 4.77
452 1 4.27 20.23 4.25
453 1 5.34 20.23 5.32
454 2 1.52 23.92 4.79
455 1 2.09 24.45 4.24
456 1 2.12 23.37 5.31
457 2 6.35 19.13 0.04
458 1 5.82 19.71 -0.5
459 1 6.91 19.72 0.55
460 2 9.61 22.35 0.09
461 1 9.07 22.88 -0.5
462 1 10.13 21.8 -0.48
463 2 9.53 19.18 3.11
464 1 9.01 18.64 3.68
465 1 10.09 19.7 3.7
466 2 6.42 22.38 3.14
467 1 5.88 21.79 3.69
468 1 6.95 21.79 2.62
469 2 7.95 20.76 1.57
470 1 8.52 20.23 2.11
471 1 8.55 21.3 1.05
472 2 11.21 23.98 1.64
473 1 10.62 24.51 2.14
474 1 10.62 23.43 1.09
475 2 11.17 20.69 4.76
476 1 10.63 21.25 5.35
477 1 11.7 20.18 5.34
478 2 7.98 24.03 4.8
479 1 7.46 23.44 4.24
480 1 8.52 23.44 5.32
481 2 12.79 19.18 0.04
482 1 12.21 19.69 -0.51
483 1 12.19 18.64 0.58
484 2 15.98 22.31 -0.02
485 1 15.39 22.85 -0.55
486 1 15.39 21.78 0.52
487 2 15.96 19.12 3.21
488 1 16.5 18.6 2.62
489 1 15.41 19.65 2.64
490 2 12.84 22.37 3.23
491 1 12.26 21.82 3.76
492 1 12.25 22.9 2.7
493 2 14.4 20.7 1.61
494 1 13.82 21.26 2.15
495 1 13.8 20.19 1.08
496 2 17.53 24.03 1.64
497 1 18.06 23.45 2.15
498 1 16.99 23.44 1.09
499 2 17.64 20.73 4.75
500 1 17.06 20.19 4.22
501 1 17.05 21.25 5.29
502 2 14.36 23.97 4.87
503 1 13.82 23.43 4.29
504 1 14.9 24.5 4.27
505 2 19.11 19.06 0.04
506 1 18.58 19.64 -0.5
507 1 19.66 19.65 0.56
508 2 22.36 22.34 -0.02
509 1 22.9 22.86 0.57
510 1 21.81 21.81 0.55
511 2 22.3 19.17 3.24
512 1 21.77 18.59 3.75
513 1 22.83 18.58 2.67
514 2 19.15 22.35 3.12
515 1 19.68 22.89 3.71
516 1 18.62 21.81 3.7
517 2 20.75 20.76 1.52
518 1 20.21 21.29 2.09
519 1 21.27 20.21 2.11
520 2 23.96 23.89 1.58
521 1 24.49 23.36 2.16
522 1 23.42 24.43 2.16
523 2 23.89 20.77 4.73
524 1 23.36 20.17 4.24
525 1 24.44 20.2 5.3
526 2 20.74 23.95 4.71
527 1 21.27 23.42 5.3
528 1 20.19 24.48 5.29
529 2 25.43 19.16 -0.03
530 1 26.02 18.62 -0.55
531 1 26.03 19.71 0.5
532 2 28.71 22.37 -0.03
533 1 29.24 22.91 0.56
534 1 28.18 21.84 0.55
535 2 28.67 19.17 3.14
536 1 29.26 19.69 3.69
537 1 29.26 18.62 2.62
538 2 25.52 22.36 3.13
539 1 26.06 22.86 3.73
540 1 24.98 21.81 3.7
541 2 27.12 20.78 1.49
542 1 26.58 21.31 2.08
543 1 27.66 20.24 2.06
544 2 30.23 23.97 1.59
545 1 30.81 23.41 2.11
546 1 30.81 24.49 1.05
547 2 30.31 20.72 4.73
548 1 29.78 21.27 5.32
549 1 30.84 20.19 5.31
550 2 27.15 23.82 4.83
551 1 27.67 24.41 4.29
552 1 26.58 24.4 5.35
553 2 32.02 19.18 -0.02
554 1 31.44 19.71 -0.54
555 1 31.43 18.63 0.51
556 2 35.13 22.39 -0.04
557 1 34.54 22.91 -0.56
558 1 34.54 21.84 0.51
559 2 35.13 19.08 3.2
560 1 35.66 19.67 3.71
561 1 34.57 19.67 2.66
562 2 31.93 22.3 3.09
563 1 32.46 22.86 3.68
564 1 31.4 21.78 3.67
565 2 33.53 20.75 1.58
566 1 32.95 21.28 2.12
567 1 32.95 20.21 1.04
568 2 36.77 23.94 1.6
569 1 36.2 24.47 2.14
570 1 36.18 23.41 1.05
571 2 36.72 20.68 4.75
572 1 37.26 21.27 4.22
573 1 36.19 21.27 5.3
574 2 33.45 23.98 4.82
575 1 34.04 24.49 4.26
576 1 34.04 23.44 5.35
577 2 0 0.11 6.34
578 1 0.54 -0.48 5.82
579 1 -0.54 -0.47 6.88
580 2 3.15 3.28 6.41
581 1 3.71 2.69 5.86
582 1 2.64 2.69 6.92
583 2 3.16 0.01 9.68
584 1 3.7 -0.51 9.1
585 1 2.63 0.56 9.08
586 2 0.01 3.24 9.49
587 1 0.54 3.75 10.07
588 1 -0.53 2.69 10.08
589 2 1.67 1.61 7.95
590 1 1.08 2.16 8.49
591 1 1.08 1.09 7.41
592 2 4.76 4.87 7.95
593 1 5.3 4.28 8.5
594 1 4.22 4.28 7.44
595 2 4.75 1.69 11.16
596 1 4.22 1.11 10.64
597 1 5.31 1.09 11.69
598 2 1.55 4.79 11.18
599 1 2.14 5.34 10.64
600 1 2.14 4.27 11.72
601 2 6.37 0.04 6.47
602 1 6.92 -0.5 5.89
603 1 5.85 0.57 5.87
604 2 9.55 3.21 6.37
605 1 10.1 2.63 5.83
606 1 9.04 2.63 6.9
607 2 9.63 -0.04 9.61
608 1 9.05 -0.58 10.12
609 1 9.04 0.51 9.06
610 2 6.38 3.23 9.51
611 1 6.92 3.75 10.1
612 1 5.83 2.7 10.09
613 2 8.08 1.6 7.98
614 1 7.49 2.15 8.52
615 1 7.49 1.08 7.45
616 2 11.2 4.74 7.95
617 1 10.62 5.28 8.49
618 1 10.61 4.21 7.42
619 2 11.13 1.58 11.19
620 1 11.68 2.11 10.59
621 1 10.61 1.04 10.62
622 2 8.01 4.71 11.21
623 1 8.54 5.3 10.65
624 1 7.47 5.29 11.73
625 2 12.75 0.05 6.43
626 1 13.33 -0.5 5.88
627 1 13.33 0.58 6.94
628 2 15.98 3.15 6.33
629 1 15.39 3.7 5.8
630 1 15.4 2.64 6.88
631 2 15.99 0.04 9.58
632 1 15.44 -0.53 10.11
633 1 16.51 -0.55 9.04
634 2 12.74 3.09 9.53
635 1 13.28 3.68 10.07
636 1 12.21 3.67 9.01
637 2 14.35 1.63 7.88
638 1 13.81 2.14 8.45
639 1 14.9 1.08 8.47
640 2 17.6 4.73 8.08
641 1 17.05 4.22 7.49
642 1 18.11 5.29 7.51
643 2 17.5 1.56 11.25
644 1 18.06 2.11 10.66
645 1 17 1.03 10.67
646 2 14.37 4.7 11.16
647 1 14.9 5.28 10.63
648 1 13.83 5.29 11.71
649 2 19.1 -0.08 6.37
650 1 18.59 0.51 5.85
651 1 19.66 0.5 6.92
652 2 22.23 3.19 6.37
653 1 22.82 2.65 5.84
654 1 22.81 3.72 6.91
655 2 22.37 -0.02 9.6
656 1 21.78 -0.56 10.12
657 1 21.78 0.52 9.06
658 2 19.17 3.14 9.53
659 1 19.69 3.73 10.09
660 1 18.63 3.72 9.01
661 2 20.78 1.52 8.02
662 1 20.23 2.11 8.53
663 1 21.29 2.11 7.46
664 2 23.88 4.76 7.97
665 1 24.47 4.23 8.52
666 1 24.46 5.29 7.44
667 2 23.88 1.64 11.14
668 1 23.36 1.05 10.63
669 1 24.44 1.07 11.69
670 2 20.64 4.79 11.16
671 1 21.22 5.32 10.62
672 1 21.23 4.25 11.68
673 2 25.54 0.04 6.34
674 1 24.96 0.56 5.82
675 1 24.96 -0.51 6.89
676 2 28.67 3.24 6.31
677 1 29.2 3.77 6.89
678 1 28.14 2.69 6.9
679 2 28.76 -0.01 9.69
680 1 29.27 -0.53 9.1
681 1 28.2 0.54 9.11
682 2 25.52 3.2 9.54
683 1 26.06 3.73 10.13
684 1 24.98 2.67 10.12
685 2 27.15 1.63 7.98
686 1 26.57 2.15 8.52
687 1 26.55 1.1 7.43
688 2 30.2 4.82 7.97
689 1 30.79 4.27 8.5
690 1 30.78 5.35 7.45
691 2 30.29 1.6 11.24
692 1 30.84 2.13 10.64
693 1 29.77 1.06 10.67
694 2 27.08 4.79 11.18
695 1 27.66 5.33 10.65
696 1 27.66 4.26 11.72
697 2 31.9 0.02 6.49
698 1 32.45 -0.51 5.92
699 1 31.37 0.55 5.9
700 2 35.14 3.22 6.31
701 1 35.67 3.74 6.89
702 1 34.59 2.68 6.89
703 2 35.14 -0.03 9.49
704 1 34.57 -0.56 10.08
705 1 35.65 0.51 10.08
706 2 31.86 3.17 9.56
707 1 32.45 3.73 10.09
708 1 32.44 2.65 9.03
709 2 33.48 1.67 7.97
710 1 34.03 1.07 8.5
711 1 32.95 1.09 7.45
712 2 36.65 4.76 7.96
713 1 37.24 4.24 8.51
714 1 37.23 5.3 7.43
715 2 36.67 1.58 11.15
716 1 36.15 2.12 11.73
717 1 37.22 1.05 11.74
718 2 33.49 4.76 11.14
719 1 34.03 5.36 10.61
720 1 32.96 5.34 11.68
721 2 -0.1 6.35 6.4
722 1 0.49 5.82 5.87
723 1 0.48 6.9 6.93
724 2 3.14 9.58 6.41
725 1 3.73 9.06 5.86
726 1 3.73 10.12 6.94
727 2 3.21 6.43 9.64
728 1 3.73 5.88 9.05
729 1 2.68 6.96 9.06
730 2 0.09 9.55 9.58
731 1 -0.49 9.01 10.12
732 1 -0.5 10.09 9.06
733 2 1.62 7.95 7.99
734 1 1.08 8.53 8.53
735 1 2.15 8.54 7.46
736 2 4.83 11.18 7.92
737 1 5.35 10.63 8.49
738 1 4.29 11.71 8.52
739 2 4.84 8.02 11.16
740 1 4.27 7.48 10.62
741 1 4.24 8.53 11.7
742 2 1.63 11.17 11.16
743 1 1.05 10.63 10.63
744 1 1.03 11.7 11.7
745 2 6.4 6.46 6.38
746 1 6.94 5.88 5.84
747 1 5.86 5.87 6.9
748 2 9.58 9.53 6.47
749 1 9.04 10.09 5.89
750 1 10.1 9 5.88
751 2 9.59 6.29 9.57
752 1 10.12 6.87 10.11
753 1 9.07 6.88 9.03
754 2 6.37 9.61 9.53
755 1 5.84 9.03 10.07
756 1 6.91 9.02 9
757 2 8 7.97 8.01
758 1 8.54 8.5 7.43
759 1 7.46 7.44 7.42
760 2 11.23 11.14 8.01
761 1 10.64 11.68 8.52
762 1 10.64 10.6 7.47
763 2 11.2 7.92 11.14
764 1 10.66 8.49 11.72
765 1 11.73 7.42 11.74
766 2 8.01 11.13 11.13
767 1 7.42 10.61 10.6
768 1 7.42 11.67 11.68
769 2 12.75 6.43 6.28
770 1 12.21 5.87 6.86
771 1 13.28 6.94 6.86
772 2 16.05 9.6 6.35
773 1 15.46 10.12 5.83
774 1 15.47 9.04 6.9
775 2 15.88 6.42 9.58
776 1 16.46 6.94 10.11
777 1 16.47 5.86 9.06
778 2 12.8 9.53 9.56
779 1 12.23 8.99 10.11
780 1 12.21 10.07 9.04
781 2 14.35 7.95 7.91
782 1 13.8 8.49 8.49
783 1 14.89 7.43 8.5
784 2 17.5 11.21 7.93
785 1 18.05 10.62 8.48
786 1 16.99 10.62 7.4
787 2 17.57 7.99 11.11
788 1 17.04 8.51 11.7
789 1 18.11 7.44 11.7
790 2 14.31 11.14 11.19
791 1 13.79 10.6 10.6
792 1 14.87 11.67 10.6
793 2 19.15 6.43 6.45
794 1 19.7 5.88 5.86
795 1 18.62 6.94 5.87
796 2 22.36 9.6 6.42
797 1 21.77 10.12 5.88
798 1 21.77 9.05 6.95
799 2 22.35 6.39 9.61
800 1 22.88 5.85 9.01
801 1 21.8 6.91 9.03
802 2 19.11 9.61 9.47
803 1 19.67 10.12 10.05
804 1 18.59 9.06 10.06
805 2 20.78 7.92 8.02
806 1 20.18 8.5 8.53
807 1 20.2 7.42 7.47
808 2 23.95 11.19 8.08
809 1 23.39 10.65 7.5
810 1 24.47 11.71 7.49
811 2 23.92 8.09 11.16
812 1 23.4 7.5 10.62
813 1 24.45 7.5 11.7
814 2 20.71 11.13 11.14
815 1 21.29 11.69 10.61
816 1 21.3 10.61 11.66
817 2 25.51 6.35 6.46
818 1 26.07 5.82 5.88
819 1 24.99 6.89 5.87
820 2 28.82 9.53 6.33
821 1 28.23 10.07 5.83
822 1 28.24 8.99 6.89
823 2 28.74 6.43 9.63
824 1 29.27 5.87 9.04
825 1 28.19 6.94 9.05
826 2 25.63 9.59 9.57
827 1 25.04 9.06 10.11
828 1 25.05 10.13 9.04
829 2 27.21 7.93 8
830 1 26.64 8.48 8.52
831 1 26.62 7.4 7.46
832 2 30.29 11.15 8.09
833 1 29.77 10.61 7.49
834 1 30.85 11.68 7.51
835 2 30.32 8.03 11.21
836 1 29.79 7.46 10.66
837 1 30.85 7.43 11.73
838 2 27.11 11.12 11.2
839 1 26.59 10.61 10.61
840 1 27.66 11.68 10.61
841 2 31.89 6.42 6.46
842 1 32.42 5.87 5.88
843 1 31.37 6.96 5.87
844 2 35.06 9.67 6.41
845 1 35.61 9.07 5.86
846 1 34.54 9.09 6.93
847 2 35.06 6.39 9.64
848 1 35.61 5.85 9.05
849 1 34.55 6.92 9.05
850 2 31.98 9.61 9.53
851 1 31.4 9.06 10.09
852 1 31.39 10.13 9.02
853 2 33.57 8 7.97
854 1 32.99 8.55 8.5
855 1 32.98 7.47 7.44
856 2 36.71 11.14 8.09
857 1 36.16 10.63 7.51
858 1 37.25 11.69 7.5
859 2 36.74 8.03 11.16
860 1 36.17 7.44 10.63
861 1 37.25 7.44 11.69
862 2 33.49 11.28 11.14
863 1 32.96 10.69 10.6
864 1 34.04 10.69 11.67
865 2 0.04 12.73 6.4
866 1 -0.5 13.32 5.86
867 1 0.58 13.32 6.92
868 2 3.16 15.96 6.43
869 1 3.74 15.43 5.88
870 1 3.74 16.51 6.94
871 2 3.23 12.78 9.55
872 1 2.67 12.24 10.14
873 1 3.75 13.3 10.14
874 2 0.03 15.99 9.56
875 1 -0.51 15.4 10.09
876 1 0.56 15.41 9.02
877 2 1.55 14.36 7.94
878 1 2.13 13.83 8.5
879 1 2.13 14.9 7.43
880 2 4.78 17.59 7.9
881 1 5.31 17.04 8.49
882 1 4.25 18.11 8.49
883 2 4.73 14.35 11.17
884 1 5.32 14.88 10.63
885 1 5.31 13.82 11.71
886 2 1.59 17.66 11.18
887 1 1.07 17.07 10.63
888 1 2.13 17.08 11.71
889 2 6.35 12.79 6.39
890 1 6.89 12.21 5.85
891 1 5.83 12.2 6.93
892 2 9.61 15.97 6.34
893 1 10.12 15.39 5.81
894 1 9.04 15.39 6.88
895 2 9.57 12.74 9.47
896 1 9.04 12.21 10.06
897 1 10.12 13.27 10.06
898 2 6.31 15.93 9.56
899 1 6.9 16.47 10.09
900 1 6.9 15.41 9.01
901 2 7.94 14.45 7.93
902 1 8.49 13.86 8.47
903 1 7.41 13.86 7.41
904 2 11.19 17.6 7.94
905 1 11.72 17.02 8.5
906 1 10.67 17.01 7.41
907 2 11.15 14.35 11.12
908 1 11.74 14.89 10.62
909 1 11.73 13.82 11.69
910 2 7.94 17.48 11.13
911 1 8.48 18.06 10.61
912 1 7.41 18.07 11.68
913 2 12.88 12.72 6.42
914 1 12.29 13.27 5.87
915 1 12.3 12.2 6.94
916 2 16.05 15.93 6.36
917 1 15.47 16.48 5.83
918 1 15.46 15.4 6.9
919 2 15.91 12.72 9.58
920 1 16.5 13.26 10.1
921 1 16.49 12.19 9.03
922 2 12.71 15.94 9.62
923 1 13.28 16.49 10.13
924 1 13.3 15.4 9.07
925 2 14.4 14.38 7.98
926 1 14.93 13.79 8.52
927 1 13.86 13.8 7.45
928 2 17.63 17.6 7.97
929 1 17.04 18.1 8.51
930 1 17.05 17.04 7.43
931 2 17.44 14.31 11.13
932 1 18.03 14.88 10.59
933 1 18.03 13.81 11.66
934 2 14.35 17.6 11.1
935 1 14.89 17.03 11.67
936 1 13.83 18.11 11.69
937 2 19.21 12.74 6.43
938 1 18.64 13.28 5.87
939 1 18.61 12.2 6.93
940 2 22.34 15.91 6.36
941 1 22.88 16.46 6.95
942 1 21.8 15.39 6.94
943 2 22.3 12.8 9.62
944 1 22.85 12.26 9.05
945 1 21.77 13.31 9.02
946 2 19.2 15.92 9.53
947 1 19.71 16.49 10.08
948 1 18.65 16.52 9.01
949 2 20.78 14.33 7.93
950 1 20.2 14.89 8.47
951 1 20.19 13.8 7.42
952 2 23.97 17.56 7.89
953 1 24.48 17.01 8.47
954 1 23.42 18.09 8.47
955 2 23.96 14.43 11.22
956 1 23.41 13.85 10.67
957 1 24.49 13.83 11.73
958 2 20.72 17.53 11.1
959 1 21.25 16.99 11.69
960 1 20.2 18.08 11.68
961 2 25.5 12.74 6.45
962 1 26.04 12.2 5.87
963 1 24.98 13.28 5.86
964 2 28.71 16.06 6.41
965 1 29.23 15.47 5.85
966 1 28.18 15.49 6.93
967 2 28.75 12.81 9.66
968 1 29.27 12.25 9.08
969 1 28.2 13.33 9.06
970 2 25.48 15.92 9.55
971 1 26.04 16.46 10.12
972 1 24.97 15.39 10.14
973 2 27.19 14.37 7.95
974 1 26.6 14.88 8.51
975 1 26.6 13.82 7.43
976 2 30.27 17.6 7.93
977 1 30.82 17.02 8.49
978 1 29.75 17.01 7.42
979 2 30.29 14.39 11.15
980 1 29.76 13.81 10.62
981 1 30.84 13.8 11.69
982 2 27.13 17.5 11.12
983 1 27.67 16.98 11.71
984 1 26.6 18.05 11.69
985 2 31.89 12.72 6.37
986 1 32.49 12.19 5.83
987 1 32.47 13.26 6.9
988 2 35.06 15.93 6.36
989 1 35.64 15.4 5.83
990 1 35.64 16.46 6.91
991 2 35.14 12.84 9.61
992 1 34.58 12.26 10.13
993 1 35.67 12.24 9.07
994 2 31.91 16.07 9.62
995 1 31.37 15.48 10.13
996 1 32.43 15.49 9.06
997 2 33.4 14.36 7.95
998 1 33.99 13.83 8.5
999 1 33.98 14.88 7.42
1000 2 36.74 17.51 7.92
1001 1 37.27 16.99 8.5
1002 1 36.2 18.07 8.51
1003 2 36.77 14.33 11.13
1004 1 36.2 13.81 10.62
1005 1 36.17 14.89 11.68
1006 2 33.57 17.53 11.12
1007 1 32.98 17.01 10.61
1008 1 32.98 18.08 11.67
1009 2 0.03 19.11 6.43
1010 1 -0.55 19.65 5.87
1011 1 -0.55 18.59 6.94
1012 2 3.22 22.36 6.33
1013 1 3.75 21.77 5.81
1014 1 2.68 21.77 6.89
1015 2 3.24 19.18 9.57
1016 1 2.66 18.64 10.11
1017 1 2.65 19.71 9.03
1018 2 -0.01 22.33 9.49
1019 1 0.53 22.85 10.08
1020 1 -0.54 21.79 10.06
1021 2 1.65 20.75 7.99
1022 1 1.07 21.28 8.52
1023 1 1.06 20.2 7.46
1024 2 4.76 23.98 8.08
1025 1 4.25 23.42 7.49
1026 1 5.29 24.51 7.51
1027 2 4.8 20.75 11.22
1028 1 4.21 20.22 10.66
1029 1 4.23 21.29 11.73
1030 2 1.62 23.84 11.21
1031 1 2.15 24.43 10.67
1032 1 1.08 24.42 11.75
1033 2 6.41 19.1 6.31
1034 1 5.86 18.59 6.89
1035 1 6.93 19.65 6.9
1036 2 9.61 22.32 6.3
1037 1 10.11 22.87 6.88
1038 1 9.06 21.78 6.89
1039 2 9.46 19.13 9.6
1040 1 10.05 19.67 10.13
1041 1 10.05 18.61 9.05
1042 2 6.46 22.28 9.58
1043 1 5.88 21.77 10.12
1044 1 5.88 22.85 9.06
1045 2 7.97 20.73 7.94
1046 1 7.43 21.26 8.52
1047 1 8.5 20.18 8.53
1048 2 11.12 23.9 7.95
1049 1 10.6 24.47 8.51
1050 1 11.68 24.5 7.45
1051 2 11.11 20.77 11.2
1052 1 11.7 21.29 10.66
1053 1 11.7 20.22 11.73
1054 2 8.09 23.89 11.14
1055 1 7.5 23.35 10.61
1056 1 7.51 24.43 11.68
1057 2 12.71 19.25 6.33
1058 1 13.28 18.68 5.8
1059 1 12.21 18.66 6.87
1060 2 15.99 22.3 6.37
1061 1 15.41 22.86 5.85
1062 1 15.4 21.77 6.9
1063 2 15.95 19.1 9.52
1064 1 15.41 18.59 10.1
1065 1 16.49 19.65 10.11
1066 2 12.8 22.34 9.63
1067 1 12.25 22.88 9.05
1068 1 13.31 21.8 9.04
1069 2 14.32 20.76 7.95
1070 1 14.86 20.16 8.49
1071 1 13.79 20.19 7.42
1072 2 17.57 23.89 8
1073 1 17.02 23.36 7.41
1074 1 18.08 24.43 7.41
1075 2 17.48 20.73 11.2
1076 1 18.06 21.26 10.66
1077 1 18.07 20.2 11.74
1078 2 14.33 24.02 11.18
1079 1 13.82 23.44 10.63
1080 1 14.88 23.43 11.71
1081 2 19.23 19.14 6.42
1082 1 18.64 19.68 5.86
1083 1 18.64 18.62 6.94
1084 2 22.3 22.45 6.41
1085 1 22.83 21.85 5.86
1086 1 21.77 21.87 6.93
1087 2 22.41 19.12 9.61
1088 1 21.83 18.59 10.13
1089 1 21.82 19.67 9.07
1090 2 19.14 22.23 9.6
1091 1 19.69 22.82 10.12
1092 1 18.62 22.82 9.05
1093 2 20.76 20.79 8
1094 1 20.17 21.29 8.54
1095 1 20.17 20.23 7.46
1096 2 24.02 23.94 7.96
1097 1 23.44 24.47 8.51
1098 1 23.44 23.41 7.43
1099 2 23.98 20.71 11.23
1100 1 24.5 21.26 10.64
1101 1 23.44 20.18 10.64
1102 2 20.79 23.9 11.09
1103 1 21.31 23.37 11.67
1104 1 20.24 24.44 11.68
1105 2 25.53 19.26 6.42
1106 1 26.08 18.67 5.86
1107 1 25.01 18.67 6.93
1108 2 28.8 22.37 6.38
1109 1 28.22 22.88 5.86
1110 1 28.21 21.81 6.93
1111 2 28.73 19.16 9.52
1112 1 28.19 18.57 10.08
1113 1 29.24 18.58 8.99
1114 2 25.56 22.39 9.67
1115 1 25.03 22.91 9.08
1116 1 26.09 21.83 9.09
1117 2 27.13 20.79 7.99
1118 1 27.67 20.18 8.51
1119 1 26.59 20.22 7.45
1120 2 30.29 23.96 8.01
1121 1 29.77 23.42 7.42
1122 1 30.83 24.49 7.44
1123 2 30.33 20.7 11.16
1124 1 29.75 20.17 10.62
1125 1 29.74 21.23 11.7
1126 2 27.15 23.97 11.23
1127 1 26.62 23.43 10.65
1128 1 27.7 24.49 10.65
1129 2 31.86 19.21 6.36
1130 1 32.42 18.63 5.84
1131 1 31.33 18.63 6.89
1132 2 35.14 22.37 6.33
1133 1 35.67 22.91 6.91
1134 1 34.6 21.83 6.91
1135 2 35.17 19.2 9.59
1136 1 34.58 18.64 10.1
1137 1 34.59 19.72 9.04
1138 2 31.95 22.38 9.62
1139 1 31.37 21.82 10.13
1140 1 31.37 22.9 9.07
1141 2 33.61 20.79 7.94
1142 1 33.03 21.31 8.5
1143 1 33.02 20.25 7.42
1144 2 36.7 23.96 7.87
1145 1 37.24 23.41 8.46
1146 1 36.17 24.48 8.46
1147 2 36.74 20.7 11.15
1148 1 36.16 20.18 10.62
1149 1 36.14 21.24 11.7
1150 2 33.52 23.93 11.2
1151 1 32.93 23.4 10.66
1152 1 32.94 24.48 11.72
1153 2 0.04 -0.03 12.71
1154 1 -0.49 -0.55 13.29
1155 1 0.56 0.54 13.31
1156 2 3.17 3.24 12.78
1157 1 3.76 2.69 12.23
1158 1 3.75 3.76 13.31
1159 2 3.15 0 15.84
1160 1 2.64 -0.53 16.43
1161 1 3.7 0.54 16.43
1162 2 -0.02 3.15 16.06
1163 1 -0.55 3.7 15.48
1164 1 0.53 2.63 15.46
1165 2 1.51 1.63 14.35
1166 1 2.08 1.08 14.87
1167 1 2.11 2.17 13.82
1168 2 4.67 4.78 14.36
1169 1 5.25 4.26 14.91
1170 1 5.27 5.31 13.82
1171 2 4.71 1.61 17.58
1172 1 5.29 2.15 17.05
1173 1 5.3 1.06 18.1
1174 2 1.59 4.81 17.6
1175 1 1.06 4.26 17.02
1176 1 2.12 5.34 17
1177 2 6.42 -0.04 12.68
1178 1 5.89 -0.57 13.26
1179 1 6.93 0.52 13.28
1180 2 9.58 3.15 12.8
1181 1 9.05 3.7 12.23
1182 1 10.11 2.62 12.2
1183 2 9.49 0.01 15.97
1184 1 10.08 0.55 16.5
1185 1 10.06 -0.52 15.42
1186 2 6.28 3.22 15.99
1187 1 6.86 3.74 16.53
1188 1 6.87 2.68 15.45
1189 2 7.89 1.63 14.39
1190 1 8.47 1.09 14.92
1191 1 8.48 2.14 13.83
1192 2 11.2 4.83 14.41
1193 1 11.71 4.25 14.93
1194 1 10.66 4.23 13.84
1195 2 11.13 1.62 17.53
1196 1 11.72 2.16 17.01
1197 1 11.72 1.08 18.07
1198 2 7.94 4.7 17.58
1199 1 8.48 5.29 17.04
1200 1 7.42 5.29 18.11
1201 2 12.74 0 12.82
1202 1 13.28 -0.53 12.25
1203 1 12.2 0.53 12.23
1204 2 15.96 3.18 12.85
1205 1 15.42 3.71 12.26
1206 1 16.48 2.63 12.27
1207 2 16 -0.05 15.9
1208 1 16.52 0.53 16.47
1209 1 15.45 0.55 15.39
1210 2 12.65 3.21 15.96
1211 1 13.23 3.75 16.51
1212 1 13.24 2.68 15.43
1213 2 14.4 1.62 14.46
1214 1 14.92 2.14 13.88
1215 1 13.85 1.08 13.87
1216 2 17.52 4.82 14.47
1217 1 16.99 4.27 13.89
1218 1 18.08 5.33 13.88
1219 2 17.47 1.56 17.56
1220 1 18.05 2.12 17.03
1221 1 18.07 1.05 18.09
1222 2 14.36 4.81 17.53
1223 1 14.89 4.26 18.12
1224 1 13.83 5.34 18.12
1225 2 19.21 -0.02 12.73
1226 1 18.61 0.52 12.21
1227 1 18.63 -0.55 13.27
1228 2 22.38 3.25 12.73
1229 1 22.89 2.66 12.2
1230 1 21.84 2.66 13.29
1231 2 22.23 0.01 15.93
1232 1 22.82 0.53 16.48
1233 1 22.81 -0.54 15.42
1234 2 19.11 3.21 16.05
1235 1 18.59 3.74 15.47
1236 1 19.66 2.67 15.46
1237 2 20.77 1.63 14.38
1238 1 21.28 1.05 14.9
1239 1 20.22 1.04 13.83
1240 2 23.97 4.8 14.46
1241 1 23.43 4.26 13.87
1242 1 24.49 5.34 13.89
1243 2 23.96 1.55 17.5
1244 1 23.41 2.09 18.07
1245 1 24.49 1.03 18.09
1246 2 20.79 4.88 17.55
1247 1 20.22 4.29 17.02
1248 1 21.3 4.29 18.08
1249 2 25.5 0.03 12.78
1250 1 26.09 -0.51 12.23
1251 1 26.09 0.55 13.32
1252 2 28.75 3.25 12.81
1253 1 29.27 2.67 12.26
1254 1 28.2 2.66 13.33
1255 2 28.61 0.04 15.94
1256 1 29.2 0.56 16.49
1257 1 29.2 -0.5 15.41
1258 2 25.61 3.21 15.93
1259 1 25.02 2.65 16.48
1260 1 25.02 3.74 15.42
1261 2 27.13 1.56 14.3
1262 1 26.59 2.12 14.88
1263 1 27.65 1.04 14.88
1264 2 30.42 4.76 14.35
1265 1 29.84 5.32 14.88
1266 1 29.84 4.23 13.83
1267 2 30.25 1.57 17.54
1268 1 30.83 2.13 17.01
1269 1 30.83 1.05 18.08
1270 2 27.16 4.8 17.56
1271 1 26.58 4.27 17.01
1272 1 26.58 5.34 18.09
1273 2 31.98 0 12.71
1274 1 31.4 0.54 12.2
1275 1 31.4 -0.52 13.28
1276 2 35.09 3.16 12.75
1277 1 34.56 3.76 12.22
1278 1 35.62 3.73 13.29
1279 2 35.07 -0.03 16
1280 1 35.62 0.57 16.51
1281 1 34.55 0.55 15.44
1282 2 31.91 3.21 16.05
1283 1 31.39 3.73 15.46
1284 1 32.46 2.66 15.46
1285 2 33.54 1.56 14.42
1286 1 34.06 2.12 13.84
1287 1 33 1.04 13.83
1288 2 36.72 4.68 14.4
1289 1 36.16 5.28 14.92
1290 1 37.23 5.26 13.85
1291 2 36.62 1.64 17.51
1292 1 37.2 2.15 17
1293 1 37.22 1.1 18.08
1294 2 33.57 4.77 17.5
1295 1 32.98 4.25 16.99
1296 1 32.99 5.31 18.07
1297 2 -0.09 6.39 12.74
1298 1 0.5 5.86 12.23
1299 1 0.49 6.93 13.3
1300 2 3.14 9.47 12.75
1301 1 2.62 10.06 12.22
1302 1 3.7 10.06 13.29
1303 2 3.2 6.43 15.99
1304 1 3.72 5.87 15.39
1305 1 2.66 6.96 15.41
1306 2 -0.01 9.52 15.87
1307 1 0.52 10.09 16.46
1308 1 -0.54 9.01 16.46
1309 2 1.59 7.95 14.41
1310 1 1.05 8.53 14.92
1311 1 2.12 8.54 13.85
1312 2 4.8 11.19 14.29
1313 1 5.34 10.66 14.88
1314 1 4.26 11.72 14.87
1315 2 4.77 8 17.55
1316 1 4.25 7.42 17.01
1317 1 5.32 7.41 18.08
1318 2 1.56 11.2 17.48
1319 1 2.1 10.65 18.07
1320 1 1.04 11.73 18.07
1321 2 6.43 6.28 12.76
1322 1 5.88 6.87 12.22
1323 1 6.94 6.86 13.3
1324 2 9.68 9.59 12.74
1325 1 9.1 10.11 12.2
1326 1 9.1 9.05 13.28
1327 2 9.47 6.4 15.98
1328 1 10.04 6.92 16.51