2304
Atoms. Timestep: 0
O 1.3093 1.78167 3.41477
H 1.80741 1.46001 4.19514
H 1.7834 1.43311 2.63135
O 5.26443 4.48312 1.0931
H 5.23552 3.5039 1.11194
H 4.33018 4.77626 1.08589
O 6.55498 5.42384 3.33015
H 6.07991 5.08513 4.11686
H 6.07059 5.07752 2.55141
O 5.25527 4.51649 5.58474
H 5.23549 3.53769 5.60795
H 4.31671 4.80041 5.59445
O 2.63857 0.893194 5.6407
H 3.57709 1.17724 5.65239
H 2.65666 29.0887 5.62753
O 2.65933 5.38908 5.60277
H 2.17055 5.06445 4.81726
H 2.16407 5.05779 6.38112
O 5.25227 1.73495 1.15066
H 5.68828 1.41509 1.96672
H 4.33405 1.3947 1.18248
O 5.23858 1.75588 5.66483
H 5.72497 1.43543 6.45243
H 5.73276 1.41861 4.88827
O 1.32233 4.49532 7.82462
H 1.2885 3.51623 7.83989
H 0.388816 4.79354 7.84549
O 1.34055 4.52241 3.366
H 0.40065 4.80076 3.36641
H 1.32246 3.54208 3.37175
O 2.63838 5.3568 1.07764
H 2.62074 6.3361 1.0809
H 2.16768 5.08107 1.89073
O 2.6437 0.840302 1.19156
H 2.19137 1.1338 0.373336
H 2.62877 29.0379 1.1595
O 6.55072 0.851614 3.43443
H 6.58102 29.0485 3.41068
H 7.48349 1.14795 3.40325
O 6.56787 0.859513 7.90629
H 7.50476 1.14727 7.90517
H 6.59583 29.0556 7.89738
O 6.6017 5.39785 7.82232
H 6.10771 5.07872 7.03923
H 6.10892 5.0713 8.60409
O 1.28376 1.74305 7.85994
H 1.78536 1.42697 7.0791
H 1.77998 1.42609 8.64383
O 9.17199 1.73705 3.3738
H 9.64765 1.45072 2.56611
H 9.16704 2.71589 3.34181
O 13.05 4.56237 1.11963
H 13.5223 4.85317 0.311606
H 13.0725 3.58291 1.09993
O 14.4065 5.42006 3.36943
H 13.9113 5.07939 4.14363
H 13.9187 5.10828 2.5798
O 13.0664 4.50648 5.58907
H 13.0443 3.52693 5.58369
H 12.1294 4.79131 5.5919
O 10.4459 0.83793 5.63051
H 11.3704 1.15723 5.58533
H 10.0086 1.17286 4.81962
O 10.4339 5.35648 5.60244
H 10.4191 6.33603 5.58268
H 9.96631 5.07186 4.78904
O 13.1081 1.80537 1.10558
H 13.5894 1.46485 0.323768
H 13.5933 1.46848 1.88692
O 13.0519 1.75456 5.57031
H 13.5288 1.42524 6.35928
H 13.5564 1.43178 4.79506
O 9.1871 4.44994 7.87477
H 8.2638 4.77584 7.84238
H 9.61519 4.78791 7.06022
O 9.15044 4.49835 3.33652
H 9.58662 4.85524 2.53543
H 8.2279 4.82646 3.31171
O 10.4359 5.44453 1.08928
H 10.4697 6.4237 1.07814
H 11.3691 5.147 1.09968
O 10.5104 0.875974 1.13549
H 10.0791 1.20074 0.318029
H 11.4291 1.21343 1.10943
O 14.4203 0.879988 3.34686
H 14.4411 29.077 3.35204
H 15.3579 1.16484 3.36004
O 14.3896 0.857161 7.826
H 14.3778 29.0543 7.85047
H 13.9317 1.14654 8.6414
O 14.3504 5.41062 7.87236
H 13.9115 5.07689 7.06393
H 15.266 5.06115 7.85077
O 9.19338 1.7002 7.909
H 9.64834 1.4122 7.08978
H 9.20044 2.67996 7.88173
O 17.0358 1.74475 3.34758
H 17.5125 1.45966 4.15417
H 17.035 2.72375 3.37303
O 20.8906 4.59513 1.10805
H 20.8971 3.6152 1.08301
H 21.3558 4.88395 0.295116
O 22.1551 5.44755 3.37732
H 21.7255 5.12385 2.5572
H 23.0768 5.11845 3.34321
O 20.8987 4.48213 5.65167
H 19.9714 4.79896 5.62417
H 21.3253 4.82701 4.84092
O 18.3255 0.874243 5.62277
H 19.261 1.1638 5.64299
H 18.3557 29.0714 5.59829
O 18.2985 5.35442 5.65192
H 18.2841 6.33429 5.64062
H 17.8302 5.07534 4.83674
O 20.91 1.85045 1.12024
H 21.3614 1.50164 0.323377
H 19.994 1.50487 1.08081
O 20.9501 1.72962 5.62667
H 21.4225 1.4424 6.43444
H 20.9416 2.70896 5.65562
O 16.9414 4.4956 7.89768
H 16.9684 3.51609 7.8689
H 17.4276 4.79106 7.10019
O 17.0082 4.5047 3.39002
H 17.436 4.84338 2.5762
H 16.0836 4.82601 3.36267
O 18.2494 5.41511 1.10591
H 18.2683 6.3947 1.10195
H 19.1888 5.13851 1.10594
O 18.3239 0.903888 1.05179
H 18.3053 29.1006 1.07681
H 17.8657 1.19591 1.86697
O 22.2395 0.879104 3.34325
H 21.7718 1.19639 4.14321
H 21.7485 1.24105 2.57725
O 22.2639 0.869476 7.90722
H 22.2539 29.066 7.93167
H 21.7841 1.15658 8.71203
O 22.2277 5.37175 7.8883
H 21.7325 5.05216 7.10581
H 21.7367 5.0465 8.67024
O 17.0023 1.75418 7.87734
H 16.0844 1.41529 7.84055
H 17.4516 1.41746 7.07491
O 24.8516 1.78335 3.30903
H 23.9289 1.45623 3.32942
H 25.2733 1.44043 4.12443
O 28.7205 4.49132 1.11602
H 29.1591 4.80956 0.30032
H 27.8013 4.827 1.07489
O 29.9933 5.34123 3.39176
H 29.9831 6.32143 3.36887
H 29.5287 5.05645 2.57661
O 28.667 4.47068 5.64562
H 29.1518 4.82289 6.42045
H 29.1496 4.78983 4.85524
O 26.0743 0.815199 5.57471
H 25.6415 1.15486 6.38499
H 26.9962 1.14556 5.61218
O 26.077 5.42853 5.54715
H 26.9958 5.09255 5.59602
H 25.6365 5.10839 6.36221
O 28.7254 1.72449 1.12152
H 29.1843 1.44887 1.94281
H 28.7339 2.7035 1.12796
O 28.662 1.72966 5.64308
H 29.1312 1.4359 6.45145
H 28.6743 2.70969 5.67026
O 24.8342 4.54372 7.8324
H 24.8238 3.56361 7.84125
H 23.8918 4.8146 7.84635
O 24.7744 4.54612 3.29469
H 25.2415 4.83985 4.10472
H 24.8083 3.56724 3.3133
O 26.1184 5.40114 1.0463
H 26.0905 6.3803 1.05972
H 25.6479 5.11431 1.85661
O 26.1423 0.826849 1.06301
H 27.063 1.16086 1.11027
H 25.6954 1.16466 1.86628
O 29.9871 0.864027 3.3948
H 29.5394 1.18683 4.20451
H 30.9063 1.20008 3.43635
O 29.9813 0.847978 7.89454
H 30.9194 1.13348 7.87767
H 30.001 29.0453 7.87901
O 30.0051 5.39071 7.86782
H 30.0007 6.37088 7.8895
H 29.5332 5.10384 8.67742
O 24.8384 1.79697 7.84093
H 23.9221 1.45167 7.88962
H 25.2848 1.47707 8.65228
O 1.33041 8.98306 3.36006
H 0.411789 8.64416 3.3345
H 1.75771 8.67518 2.5345
O 5.22244 11.8198 1.06098
H 5.2039 10.8403 1.05337
H 4.28388 12.1014 1.09064
O 6.56238 12.6511 3.32264
H 6.53994 13.6307 3.31686
H 6.08189 12.3719 2.5163
O 5.25575 11.7863 5.59998
H 5.27283 10.807 5.57725
H 5.72405 12.0754 4.78956
O 2.65593 8.14222 5.61342
H 2.65005 7.16259 5.60195
H 2.1914 8.4165 4.79478
O 2.65852 12.6733 5.61712
H 3.57648 12.331 5.57891
H 2.2065 12.3342 4.81807
O 5.19378 9.06251 1.02864
H 5.68722 8.72859 0.250936
H 5.67937 8.7378 1.81405
O 5.26503 9.03548 5.55049
H 5.70432 8.70287 6.36027
H 4.34228 8.70977 5.59062
O 1.3092 11.8201 7.86271
H 1.3262 10.8402 7.83468
H 1.79888 12.1109 7.06533
O 1.3276 11.7371 3.37589
H 0.394413 12.0317 3.37224
H 1.29938 10.7574 3.37494
O 2.62008 12.6774 1.13801
H 2.13777 12.3247 1.91477
H 2.14143 12.3538 0.34711
O 2.59276 8.12242 1.06222
H 2.15609 8.45248 0.250648
H 3.51175 8.45874 1.02991
O 6.55573 8.17591 3.27671
H 6.08356 8.46526 4.08573
H 6.54373 7.19661 3.30463
O 6.53892 8.14824 7.83181
H 7.47093 8.4481 7.84056
H 6.57949 7.16923 7.83178
O 6.57695 12.7247 7.85061
H 6.09827 12.3916 7.06458
H 6.09209 12.3788 8.62925
O 1.33837 9.07174 7.83132
H 0.419722 8.73444 7.80959
H 1.77738 8.72393 7.02671
O 9.14393 9.08614 3.30814
H 8.22444 8.74596 3.31605
H 9.5643 8.74652 4.12576
O 13.0636 11.8395 1.08917
H 13.0836 10.8601 1.12981
H 13.5503 12.14 1.88452
O 14.4378 12.686 3.33956
H 14.4091 13.6647 3.3732
H 13.9559 12.3825 4.13641
O 13.0697 11.816 5.58265
H 13.0264 10.8369 5.58396
H 12.138 12.1164 5.58137
O 10.3936 8.11921 5.55932
H 9.97571 8.45274 6.38035
H 11.3151 8.45031 5.57865
O 10.4485 12.6866 5.5973
H 10.44 13.6667 5.57583
H 9.98814 12.399 4.78136
O 13.0724 9.09966 1.17736
H 13.5542 8.75615 0.395993
H 13.5545 8.76018 1.95967
O 12.9872 9.06452 5.5994
H 13.4751 8.73636 6.38325
H 13.4918 8.74052 4.82469
O 9.18561 11.7889 7.87132
H 8.26532 12.1219 7.85149
H 9.61067 12.1209 7.05333
O 9.18782 11.8294 3.30463
H 8.25131 12.1174 3.29196
H 9.15675 10.8496 3.31108
O 10.4769 12.7602 1.05062
H 10.0362 12.419 1.85658
H 11.3936 12.4139 1.08044
O 10.4724 8.2005 1.0691
H 11.3925 8.53177 1.12793
H 10.0193 8.51741 1.87796
O 14.3906 8.17035 3.40769
H 14.4103 7.19072 3.40023
H 15.3288 8.45224 3.41557
O 14.3325 8.15902 7.82294
H 15.2682 8.45265 7.82909
H 14.3623 7.17948 7.83436
O 14.336 12.7141 7.86142
H 13.8961 12.3819 7.05168
H 15.2558 12.3772 7.82657
O 9.1643 9.02872 7.84
H 9.63803 8.73929 8.64736
H 9.17436 10.0079 7.86389
O 17.0201 9.006 3.40784
H 17.4665 8.71364 2.58491
H 17.0251 9.98568 3.36969
O 20.8681 11.8143 1.10279
H 21.3035 12.149 0.291611
H 19.9431 12.1341 1.05964
O 22.1807 12.6815 3.3652
H 22.1588 13.6607 3.35214
H 21.7078 12.3961 2.5559
O 20.8729 11.8055 5.62993
H 20.8996 10.8257 5.61678
H 21.3421 12.0963 4.82014
O 18.2823 8.10613 5.65557
H 19.2007 8.44556 5.63625
H 17.8542 8.4461 4.84101
O 18.2768 12.6609 5.62583
H 19.2025 12.3377 5.60466
H 17.8605 12.3381 4.79991
O 20.854 9.06737 1.12712
H 21.3112 8.77503 0.311396
H 20.8742 10.0471 1.10544
O 20.8713 9.06634 5.63091
H 21.3595 8.71826 6.40655
H 21.3441 8.7325 4.83997
O 16.9203 11.8035 7.85516
H 16.9364 10.8239 7.84558
H 17.4082 12.0838 7.05298
O 17.0359 11.7509 3.33535
H 17.4495 12.089 2.51424
H 16.1166 12.0894 3.32981
O 18.2566 12.6851 1.05606
H 18.2396 13.6646 1.06137
H 17.7828 12.4119 0.242728
O 18.2669 8.16265 1.12349
H 17.8304 8.50835 0.31695
H 19.1862 8.50363 1.10122
O 22.1681 8.18772 3.38185
H 21.6927 8.48256 2.57763
H 22.1594 7.20766 3.3522
O 22.1809 8.13465 7.85932
H 23.1116 8.43963 7.85824
H 22.2195 7.15611 7.87328
O 22.1734 12.7613 7.87165
H 21.7045 12.4185 7.08375
H 21.6762 12.4243 8.64606
O 16.9268 9.04579 7.85256
H 17.4235 8.70345 7.08029
H 17.4009 8.71219 8.64249
O 24.7838 9.04879 3.2905
H 23.8472 8.76149 3.31554
H 24.7626 10.0289 3.30313
O 28.6664 11.7401 1.08707
H 29.1089 12.067 0.276419
H 27.7509 12.0876 1.05363
O 29.9703 12.631 3.33637
H 29.9667 13.6097 3.31844
H 29.5027 12.3462 2.52323
O 28.6981 11.7617 5.6077
H 27.7762 12.0906 5.58304
H 29.1205 12.083 4.78362
O 26.0857 8.18988 5.5622
H 26.073 7.21069 5.5448
H 25.6211 8.47494 4.74866
O 26.083 12.6582 5.55776
H 26.088 13.6372 5.58861
H 25.6139 12.377 6.37152
O 28.6926 8.98677 1.12193
H 27.7536 8.70651 1.09603
H 28.6715 9.96617 1.10341
O 28.7088 9.02089 5.60957
H 27.7697 8.74149 5.5876
H 28.6908 10.0015 5.60421
O 24.7682 11.8246 7.81242
H 23.8462 12.1532 7.85139
H 25.204 12.1544 8.62655
O 24.7847 11.7894 3.30338
H 25.2224 12.1106 4.12014
H 23.8659 12.1287 3.33657
O 26.0774 12.6777 1.0438
H 25.6157 12.3801 1.85573
H 26.0651 13.657 1.07798
O 26.0817 8.14958 1.05472
H 25.5954 8.48856 0.274227
H 25.5973 8.4865 1.83795
O 30.0015 8.08256 3.35453
H 29.5351 8.42949 4.14312
H 29.5108 8.42497 2.57794
O 30.015 8.12979 7.85658
H 29.5224 8.45206 7.07286
H 29.5354 8.47641 8.63767
O 29.9827 12.7381 7.85973
H 29.5512 12.4022 7.04768
H 30.8993 12.3925 7.83906
O 24.7825 9.06558 7.8359
H 25.2476 8.77771 7.02362
H 24.7795 10.0444 7.80833
O 1.28833 16.3478 3.41915
H 1.78146 16.0091 4.19439
H 1.77136 16.0204 2.63191
O 5.21078 19.1079 1.12924
H 5.18105 18.1296 1.13172
H 4.27526 19.3991 1.12419
O 6.55045 19.9744 3.38699
H 6.51724 20.9532 3.37649
H 6.06633 19.685 2.58616
O 5.21703 19.0524 5.62651
H 5.70958 19.3924 6.40194
H 5.69637 19.3869 4.8405
O 2.65001 15.4222 5.63343
H 3.58403 15.717 5.6254
H 2.6794 14.4429 5.62157
O 2.61005 20.0064 5.56699
H 3.52894 19.6706 5.60072
H 2.17308 19.6724 6.37865
O 5.17039 16.336 1.11659
H 5.66573 16.0147 0.334469
H 5.66112 16.008 1.89858
O 5.27035 16.3063 5.60622
H 5.73763 16.0317 6.4217
H 5.26334 17.2866 5.62547
O 1.31359 19.0908 7.80523
H 1.32437 18.112 7.83174
H 1.78658 19.3756 8.61571
O 1.24521 19.0984 3.36448
H 1.74066 19.4007 4.15483
H 1.27082 18.1191 3.39826
O 2.59634 19.9911 1.11922
H 2.10286 19.6641 1.89913
H 2.1215 19.6451 0.335212
O 2.58325 15.4429 1.16446
H 3.52069 15.7307 1.14167
H 2.60759 14.4646 1.16127
O 6.51979 15.4031 3.33027
H 6.09517 15.7321 4.14997
H 7.43737 15.7446 3.35025
O 6.5828 15.4747 7.89355
H 6.10783 15.759 8.70235
H 6.55763 14.495 7.89815
O 6.59481 19.954 7.83669
H 6.57116 20.9332 7.87075
H 6.11826 19.6534 8.63791
O 1.34177 16.3288 7.87741
H 1.82746 15.9877 7.09764
H 1.82636 15.9995 8.66172
O 9.11645 16.3434 3.37188
H 9.59761 16.0494 2.57081
H 9.13107 17.3224 3.33783
O 13.0717 19.1265 1.10948
H 13.5552 19.4658 0.327615
H 13.5534 19.4633 1.89305
O 14.3764 20.0517 3.35408
H 13.9361 19.7013 4.15585
H 15.2959 19.7137 3.38012
O 13.0717 19.1292 5.5933
H 13.0723 18.1489 5.6179
H 13.5223 19.4147 6.41584
O 10.4545 15.433 5.60512
H 9.97367 15.7562 6.39453
H 9.96966 15.7812 4.82818
O 10.4616 20.0077 5.55222
H 11.3879 19.6893 5.57956
H 10.0346 19.6621 6.36357
O 13.0741 16.3734 1.15024
H 13.5481 16.0799 0.345165
H 13.0876 17.3528 1.12025
O 13.0513 16.3815 5.60955
H 13.48 16.0373 6.42188
H 12.1314 16.047 5.62851
O 9.21612 19.085 7.82387
H 9.18073 18.1057 7.841
H 8.28259 19.3825 7.8325
O 9.16375 19.0937 3.30522
H 9.60242 19.4254 4.11586
H 8.24384 19.4285 3.33609
O 10.4606 20.0013 1.05787
H 10.022 19.6702 1.86877
H 11.386 19.6842 1.0986
O 10.457 15.5013 1.11139
H 11.3901 15.7995 1.12065
H 10.492 14.5215 1.10373
O 14.3824 15.4383 3.39679
H 13.8904 15.7751 4.17422
H 13.9084 15.7801 2.61063
O 14.3256 15.4698 7.85109
H 13.8619 15.7393 8.67182
H 14.3288 14.4904 7.86227
O 14.3326 19.9943 7.87707
H 13.9021 19.6366 8.68262
H 15.2581 19.6743 7.90346
O 9.16921 16.3451 7.86515
H 8.24445 16.02 7.90365
H 9.60457 16.0115 8.67689
O 16.9748 16.3729 3.38262
H 17.3995 16.0189 4.1913
H 16.052 16.044 3.40291
O 20.8697 19.1091 1.09158
H 21.3123 19.4403 0.282887
H 19.9512 19.4474 1.05657
O 22.1688 19.9947 3.36358
H 22.1487 20.9732 3.34151
H 21.7028 19.7025 2.55304
O 20.8425 19.097 5.61483
H 21.3342 19.4338 6.39239
H 21.3226 19.4264 4.82715
O 18.2069 15.4126 5.64908
H 19.1354 15.7262 5.64069
H 18.256 14.4345 5.6425
O 18.2424 19.9764 5.63349
H 18.2729 20.9554 5.62217
H 19.1781 19.6847 5.63236
O 20.8391 16.3528 1.13116
H 21.2927 16.0566 0.314488
H 20.8537 17.3315 1.09826
O 20.7999 16.342 5.57902
H 21.2975 16.0601 6.37435
H 20.8102 17.3213 5.6006
O 16.9492 19.1176 7.92632
H 16.9549 18.1382 7.88511
H 17.4142 19.4162 7.11789
O 16.9679 19.1267 3.34464
H 17.4362 19.418 4.15469
H 16.9825 18.1472 3.37284
O 18.2574 20.0098 1.05284
H 18.2331 20.9895 1.08168
H 17.8018 19.7086 1.86513
O 18.2365 15.4431 1.11306
H 19.1574 15.7764 1.13963
H 17.806 15.7728 1.92842
O 22.1755 15.4385 3.35976
H 21.6768 15.7701 4.13514
H 21.7022 15.7812 2.57351
O 22.1584 15.5138 7.83053
H 23.1002 15.7821 7.84579
H 22.1673 14.534 7.84388
O 22.1512 20.0293 7.8478
H 21.6951 19.6978 8.64883
H 23.064 19.6769 7.89972
O 16.9297 16.3788 7.88708
H 16.0065 16.0522 7.86576
H 17.3613 16.0162 7.08591
O 24.8003 16.3114 3.37356
H 23.8662 16.0157 3.37655
H 24.7657 17.2904 3.37294
O 28.686 19.0396 1.10679
H 29.1188 19.3829 1.91556
H 27.7658 19.3771 1.13553
O 29.9314 19.998 3.36648
H 29.4928 19.667 4.177
H 30.8526 19.6627 3.39898
O 28.6544 19.0687 5.63085
H 29.0934 19.4139 6.4352
H 27.7291 19.388 5.66476
O 26.1001 15.4138 5.64279
H 27.02 15.7466 5.60179
H 25.654 15.7523 4.83934
O 26.0331 19.9318 5.64638
H 26.0239 20.912 5.65628
H 25.5639 19.6517 6.45893
O 28.6552 16.2921 1.09094
H 29.131 15.9978 1.89616
H 28.6732 17.272 1.11619
O 28.7025 16.3287 5.58648
H 29.165 16.0474 6.40315
H 28.6943 17.3086 5.61568
O 24.7218 19.0739 7.92354
H 24.7507 18.0949 7.92743
H 25.2122 19.3586 8.72274
O 24.7682 19.0642 3.36496
H 25.1892 19.3836 4.19016
H 23.8517 19.4097 3.3753
O 26.1015 19.9614 1.13262
H 26.0839 20.94 1.14948
H 25.6248 19.6715 1.93857
O 26.0528 15.4247 1.08056
H 26.9777 15.7486 1.11445
H 25.6202 15.7559 1.89452
O 29.9671 15.4036 3.33296
H 29.5346 15.7387 4.1465
H 30.8894 15.7305 3.37218
O 29.9876 15.4961 7.88644
H 30.9269 15.7743 7.88395
H 30.0032 14.5164 7.87579
O 29.9707 19.9846 7.87131
H 30.0119 20.9636 7.86696
H 30.9012 19.68 7.84325
O 24.7787 16.3213 7.88818
H 25.2758 15.9983 7.10817
H 25.2536 15.9896 8.67807
O 1.30946 23.6599 3.34137
H 0.388616 23.328 3.31497
H 1.74247 23.3193 2.53061
O 5.25312 26.382 1.12448
H 5.25401 25.4031 1.10176
H 5.72319 26.6699 0.313213
O 6.56274 27.2811 3.37632
H 7.47998 26.9391 3.33783
H 6.1171 26.9539 2.56755
O 5.22312 26.4074 5.61914
H 5.72321 26.7345 6.39488
H 5.71726 26.7153 4.83187
O 2.60231 22.7793 5.59783
H 2.60046 21.8006 5.57482
H 2.13742 23.0642 4.78356
O 2.62526 27.3292 5.62663
H 3.5443 26.9919 5.60648
H 2.19291 26.9911 4.81397
O 5.22639 23.6155 1.09132
H 5.642 23.2904 1.91631
H 4.30134 23.2961 1.10807
O 5.21703 23.6488 5.67596
H 4.28046 23.3638 5.64232
H 5.19937 24.6282 5.66259
O 1.35473 26.3886 7.87169
H 0.426466 26.7004 7.84315
H 1.78166 26.7313 7.05876
O 1.33507 26.4189 3.39178
H 1.80326 26.6989 2.57709
H 1.32664 25.44 3.36372
O 2.64004 27.2641 1.13594
H 3.5649 26.9427 1.10668
H 2.2072 26.9206 0.326874
O 2.60325 22.7411 1.10241
H 2.13925 23.0238 0.28708
H 2.58713 21.7613 1.09116
O 6.4796 22.7275 3.38665
H 6.05422 23.0621 4.20189
H 7.39974 23.0629 3.40467
O 6.54668 22.7043 7.89118
H 6.04895 23.0486 7.12074
H 6.06911 23.0269 8.68263
O 6.5931 27.2953 7.84791
H 6.14201 26.9475 8.64501
H 7.50926 26.9477 7.88619
O 1.33477 23.6355 7.89721
H 1.77737 23.3419 7.07457
H 1.36205 24.6147 7.87589
O 9.09327 23.6111 3.39634
H 9.563 23.3087 2.59157
H 9.13232 24.5903 3.36431
O 13.0968 26.4291 1.11959
H 13.5595 26.7147 0.304888
H 13.0955 25.4501 1.09689
O 14.4351 27.2995 3.36746
H 13.9334 26.962 4.13854
H 13.9564 26.9782 2.57558
O 13.0869 26.3864 5.57822
H 13.0484 25.4073 5.59662
H 12.1539 26.6851 5.59974
O 10.4188 22.7491 5.65823
H 10.4258 21.7703 5.6087
H 9.95527 23.0487 4.84866
O 10.4588 27.2504 5.60975
H 10.4403 28.2289 5.63584
H 9.99645 26.9544 6.42017
O 13.0704 23.6751 1.11629
H 13.5033 23.352 1.93427
H 12.1483 23.3468 1.14919
O 13.0315 23.6425 5.63157
H 13.466 23.3089 6.44416
H 12.1101 23.3118 5.6593
O 9.16617 26.3641 7.89285
H 9.17559 25.3848 7.9133
H 9.64382 26.6468 8.70035
O 9.15453 26.3505 3.34445
H 9.6207 26.679 4.14067
H 9.65197 26.7026 2.57714
O 10.4767 27.2946 1.13583
H 10.5042 28.2742 1.12996
H 11.4125 27.0043 1.12218
O 10.4598 22.7584 1.15497
H 9.99527 23.0479 0.34194
H 10.4563 21.7792 1.11925
O 14.3571 22.7985 3.3754
H 13.8844 23.0748 4.18828
H 14.3575 21.8182 3.38874
O 14.3401 22.7414 7.87685
H 14.3293 21.7616 7.8987
H 13.8766 23.0288 8.69079
O 14.394 27.2799 7.85185
H 13.9514 26.9474 7.04471
H 15.3169 26.9555 7.80783
O 9.15838 23.607 7.93708
H 8.23319 23.2887 7.90269
H 9.58426 23.2824 7.11605
O 16.9627 23.6795 3.34328
H 17.4058 23.341 4.14794
H 16.04 23.3521 3.38133
O 20.9089 26.4449 1.10974
H 21.3467 26.7628 0.293557
H 19.9875 26.774 1.06993
O 22.2323 27.3011 3.34552
H 22.2229 28.2808 3.32734
H 21.7465 27.0185 2.54165
O 21.0001 26.4145 5.6461
H 20.0771 26.7392 5.60407
H 21.4309 26.7358 4.82747
O 18.2758 22.7383 5.5882
H 17.8322 23.0615 6.39911
H 19.1901 23.0875 5.61939
O 18.3849 27.3024 5.56255
H 17.8957 26.9825 4.77645
H 17.8956 26.9626 6.34007
O 20.8225 23.6731 1.11523
H 21.2982 23.3797 1.92047
H 20.857 24.6513 1.12914
O 20.8848 23.6584 5.6187
H 21.3525 23.3584 6.42623
H 20.9304 24.6371 5.63837
O 17.0112 26.395 7.78819
H 17.0042 25.4159 7.82691
H 17.4649 26.6859 8.60557
O 17.0334 26.4254 3.32808
H 16.0987 26.7213 3.35232
H 16.9959 25.4457 3.33567
O 18.3062 27.3401 1.06918
H 17.8349 26.9961 1.85643
H 17.8182 27.0018 0.289856
O 18.2229 22.7557 1.07584
H 19.1419 23.0937 1.11249
H 17.7847 23.0866 1.88697
O 22.1413 22.7578 3.34521
H 21.7197 23.0837 4.16768
H 23.0681 23.0716 3.37518
O 22.2007 22.7778 7.87111
H 22.1747 21.7979 7.88534
H 21.7161 23.0688 8.67005
O 22.2454 27.2914 7.95163
H 21.8148 26.9784 7.12995
H 23.1636 26.9507 7.91932
O 16.9595 23.6468 7.83984
H 16.0365 23.3216 7.85929
H 17.3766 23.3145 8.66218
O 24.7737 23.6116 3.3913
H 25.2281 23.3147 2.57466
H 24.7925 24.5907 3.35994
O 28.6721 26.3779 1.13626
H 29.1668 26.694 0.352094
H 29.1545 26.7212 1.91759
O 29.9777 27.288 3.3729
H 30.002 28.2674 3.38902
H 30.9136 27.0002 3.38167
O 28.6881 26.322 5.62692
H 27.7679 26.6567 5.58458
H 29.1343 26.6667 4.82697
O 26.0462 22.6775 5.63224
H 26.9705 23.0003 5.60904
H 25.6193 23.0228 4.82035
O 26.0965 27.2249 5.59738
H 26.0809 28.2041 5.58101
H 25.6244 26.9397 4.78729
O 28.6545 23.6299 1.0644
H 29.1142 23.3244 1.87384
H 28.6766 24.6089 1.10552
O 28.6653 23.5652 5.60121
H 29.1354 23.2853 6.41383
H 28.6783 24.5447 5.61651
O 24.8402 26.376 7.91467
H 24.8488 25.3958 7.89174
H 25.2908 26.6619 7.09366
O 24.8044 26.3604 3.33261
H 25.2396 26.6917 2.51995
H 23.8866 26.7042 3.30594
O 26.0752 27.258 1.05412
H 26.1155 28.2377 1.06054
H 27.0087 26.9595 1.08395
O 26.0541 22.7236 1.12699
H 25.6118 23.0463 0.314864
H 26.9715 23.065 1.08664
O 29.9706 22.7411 3.31433
H 29.5177 23.0288 4.13407
H 29.9526 21.7613 3.34096
O 30.001 22.7298 7.85938
H 30.9178 23.0741 7.88574
H 29.5682 23.0512 8.67823
O 30.0133 27.2579 7.85306
H 29.5174 26.9271 7.07585
H 29.5366 26.925 8.64039
O 24.8268 23.6307 7.90157
H 23.8989 23.3171 7.88942
H 25.2364 23.286 7.081
O 1.37984 1.73127 12.3571
H 1.85486 1.45174 13.1681
H 1.39081 2.71042 12.3698
O 5.26404 4.52904 10.0656
H 5.24035 3.54939 10.0868
H 4.32647 4.81276 10.0634
O 6.53342 5.38913 12.3621
H 6.52043 6.36887 12.3295
H 6.07559 5.09438 11.5477
O 5.28646 4.48303 14.6422
H 4.36104 4.80613 14.617
H 5.70919 4.81233 13.8216
O 2.66319 0.87439 14.6226
H 3.58626 1.19857 14.6802
H 2.20474 1.21037 15.4208
O 2.68553 5.36022 14.6328
H 2.65822 6.33958 14.5919
H 2.2177 5.05798 13.8262
O 5.21864 1.7794 10.1194
H 5.71702 1.43533 9.34922
H 5.68702 1.44992 10.9135
O 5.27164 1.73243 14.6864
H 5.74508 1.44915 15.4957
H 5.2977 2.71171 14.6881
O 1.324 4.51434 16.8819
H 1.81946 4.8261 16.0966
H 1.81638 4.84568 17.6618
O 1.39265 4.49003 12.3742
H 1.82029 4.8187 11.5562
H 0.471809 4.8259 12.3485
O 2.64237 5.37012 10.0845
H 2.63539 6.3504 10.0496
H 2.16923 5.07225 9.2801
O 2.63035 0.834766 10.074
H 3.54937 1.17286 10.1011
H 2.20137 1.16027 10.8921
O 6.52128 0.863946 12.3769
H 6.07611 1.15173 13.1996
H 6.50981 29.0609 12.3984
O 6.60381 0.859504 16.9415
H 6.13825 1.15682 17.7506
H 6.57015 29.057 16.9603
O 6.56964 5.37145 16.8886
H 6.5507 6.34994 16.8538
H 6.10379 5.0763 16.078
O 1.34436 1.76362 16.8647
H 0.407173 1.47787 16.8587
H 1.31973 2.74274 16.882
O 9.14345 1.71634 12.3217
H 8.20825 1.4252 12.3393
H 9.11531 2.69637 12.3267
O 13.0803 4.48685 10.1517
H 13.5152 4.81717 9.33893
H 12.1591 4.81819 10.1166
O 14.3417 5.39179 12.4219
H 14.3261 6.37046 12.3798
H 13.8899 5.08643 11.6074
O 13.0088 4.47904 14.6531
H 13.5044 4.81793 15.4267
H 13.4824 4.81741 13.865
O 10.4452 0.857903 14.6051
H 10.4289 29.0542 14.5809
H 9.98168 1.149 13.793
O 10.3923 5.36418 14.6125
H 11.3182 5.04592 14.6409
H 9.97071 5.03205 15.4324
O 13.1139 1.71815 10.1358
H 12.18 1.41941 10.1414
H 13.0824 2.6972 10.1316
O 13.0725 1.72637 14.6176
H 12.1394 1.42972 14.6161
H 13.037 2.70541 14.6326
O 9.17232 4.49442 16.9142
H 9.1542 3.51448 16.9118
H 8.23548 4.78275 16.8979
O 9.12613 4.46026 12.329
H 9.55951 4.77993 13.147
H 8.21069 4.80738 12.3562
O 10.483 5.40349 10.109
H 9.99305 5.0606 10.8841
H 10.0054 5.06968 9.32144
O 10.5267 0.793134 10.143
H 10.0506 1.11421 9.34925
H 10.0151 1.1285 10.9089
O 14.4181 0.845188 12.3865
H 13.92 1.17274 13.1644
H 13.9353 1.17247 11.5987
O 14.3802 0.810839 16.8705
H 15.2991 1.1463 16.8301
H 13.9305 1.15521 16.0719
O 14.3811 5.40206 16.8682
H 14.3467 6.38061 16.894
H 13.9036 5.10346 17.6701
O 9.20675 1.75453 16.8917
H 8.29025 1.40885 16.8971
H 9.61873 1.42433 16.066
O 17.0078 1.72721 12.3562
H 16.0732 1.43088 12.3708
H 16.971 2.70638 12.3792
O 20.8771 4.47562 10.124
H 19.9553 4.80509 10.1498
H 21.3133 4.83021 10.9268
O 22.1762 5.44153 12.3499
H 22.1494 6.42103 12.3654
H 21.7236 5.15343 13.169
O 20.8671 4.58168 14.633
H 20.8841 3.60224 14.6444
H 21.3427 4.85989 15.4435
O 18.3349 0.865611 14.6164
H 18.3149 29.0624 14.5978
H 17.8563 1.15276 13.8114
O 18.254 5.45573 14.6167
H 19.1789 5.13298 14.6425
H 17.8253 5.10806 15.426
O 20.9383 1.72256 10.1589
H 20.0041 1.42523 10.1533
H 20.9015 2.70174 10.1504
O 20.907 1.81944 14.6672
H 19.9929 1.4694 14.6189
H 21.3662 1.47935 13.8718
O 16.9971 4.52896 16.8862
H 16.9714 3.54995 16.8801
H 16.0625 4.82124 16.883
O 16.9468 4.47834 12.3857
H 17.3973 4.82879 13.1816
H 16.0297 4.82033 12.4205
O 18.2692 5.38565 10.1474
H 17.7773 5.05419 10.927
H 17.7874 5.05375 9.36184
O 18.3376 0.847681 10.1265
H 17.8515 1.17384 9.34176
H 17.8417 1.17486 10.9061
O 22.2224 0.845374 12.4425
H 21.7834 1.16669 11.6281
H 23.1386 1.19172 12.4086
O 22.2176 0.872071 16.889
H 21.7305 1.2089 16.1084
H 21.7258 1.19958 17.6698
O 22.1958 5.42208 16.8871
H 21.7542 5.09571 17.6988
H 23.1122 5.07765 16.9184
O 16.974 1.77298 16.8541
H 17.4777 1.44305 16.0827
H 17.4422 1.44241 17.6476
O 24.8028 1.77802 12.3943
H 25.2701 1.48653 11.5835
H 24.807 2.75765 12.3617
O 28.7043 4.53802 10.1425
H 28.6758 3.55919 10.1377
H 27.7705 4.83229 10.139
O 30.0813 5.40233 12.366
H 30.0509 6.38155 12.3388
H 29.5846 5.10435 11.5755
O 28.6996 4.48663 14.5853
H 29.1805 4.81206 15.3755
H 29.1969 4.82562 13.813
O 26.0976 0.830315 14.6311
H 27.0142 1.17373 14.597
H 25.6552 1.17511 13.8276
O 26.0759 5.35888 14.6584
H 27.005 5.05357 14.6111
H 25.6456 5.04718 13.8359
O 28.6895 1.77354 10.13
H 29.1728 1.43965 9.34528
H 29.1858 1.44237 10.9064
O 28.7109 1.74428 14.5582
H 29.1577 1.4627 15.3837
H 28.7202 2.72443 14.5773
O 24.7907 4.48894 16.9258
H 24.8122 3.50943 16.9047
H 25.2537 4.7775 16.1117
O 24.7984 4.52229 12.3574
H 23.8804 4.86039 12.3405
H 25.2308 4.86797 11.5483
O 26.0948 5.42735 10.1177
H 26.0906 6.40657 10.0824
H 25.6424 5.13129 9.30037
O 26.0956 0.910705 10.1259
H 27.035 1.19269 10.127
H 26.1139 29.1082 10.14
O 30.0537 0.824966 12.3386
H 29.6063 1.16276 13.1425
H 30.9713 1.16559 12.3735
O 29.9961 0.913678 16.8491
H 30.0021 29.1096 16.8644
H 29.5383 1.18642 17.6707
O 29.9857 5.36395 16.8377
H 29.998 6.34317 16.8268
H 30.926 5.08744 16.8592
O 24.8298 1.73551 16.9153
H 23.9025 1.42187 16.8815
H 25.2624 1.39722 16.1046
O 1.34606 9.00665 12.2791
H 0.409526 8.71811 12.3017
H 1.31889 9.98624 12.2971
O 5.27391 11.8221 10.0953
H 5.24281 10.8428 10.0905
H 4.338 12.1124 10.1064
O 6.54598 12.7269 12.3888
H 7.46637 12.3921 12.3641
H 6.11792 12.4014 11.5712
O 5.25449 11.7831 14.6339
H 4.33324 12.1123 14.5968
H 5.69405 12.1198 13.826
O 2.6059 8.09993 14.5603
H 3.52227 8.44606 14.5471
H 2.17945 8.43199 13.7436
O 2.63075 12.6645 14.5557
H 2.62375 13.6445 14.5941
H 2.1652 12.3684 15.3655
O 5.23056 9.06713 10.0874
H 5.67996 8.72745 9.28609
H 4.31513 8.72043 10.0508
O 5.20369 9.02268 14.5594
H 5.66637 8.72201 15.3699
H 5.22316 10.0012 14.595
O 1.28699 11.8015 16.8129
H 1.30303 10.8221 16.8215
H 1.76332 12.0799 17.6222
O 1.30325 11.7592 12.3215
H 1.748 12.0961 13.1272
H 0.384389 12.0932 12.3584
O 2.6564 12.6812 10.1126
H 2.15917 12.3431 10.8862
H 2.16802 12.3684 9.32318
O 2.6529 8.1102 10.0439
H 2.16979 8.45503 9.26404
H 2.16516 8.44176 10.8277
O 6.53904 8.13207 12.3209
H 6.05426 8.4626 13.1056
H 6.05664 8.47396 11.5398
O 6.49516 8.13184 16.8156
H 7.4165 8.46484 16.8517
H 6.06197 8.45252 17.6333
O 6.54022 12.6549 16.9184
H 6.10038 12.342 16.1011
H 7.46324 12.3292 16.8719
O 1.31991 9.03816 16.8227
H 0.397909 8.71076 16.782
H 1.76037 8.70295 16.0149
O 9.15251 9.03059 12.3052
H 8.2266 8.71268 12.3164
H 9.56147 8.68815 13.1278
O 13.0541 11.8393 10.1137
H 13.0758 10.8594 10.0851
H 13.5202 12.136 9.30287
O 14.3691 12.6422 12.3923
H 14.3431 13.622 12.3902
H 13.9046 12.3693 11.5738
O 13.031 11.7735 14.646
H 13.0187 10.7942 14.6125
H 13.5084 12.0609 13.8406
O 10.3701 8.10807 14.574
H 9.91687 8.40943 15.3883
H 10.3639 7.12853 14.613
O 10.4414 12.7275 14.6318
H 11.359 12.3848 14.6063
H 9.99943 12.3809 13.8288
O 13.0917 9.09819 10.0872
H 13.5207 8.74986 9.27819
H 12.1737 8.75556 10.0718
O 12.9792 9.02422 14.6177
H 13.4319 8.69307 13.8153
H 12.0597 8.69161 14.5712
O 9.13591 11.767 16.8632
H 9.61971 12.1115 16.0848
H 9.60776 12.111 17.65
O 9.14117 11.7977 12.3881
H 9.61483 12.0824 11.5778
H 9.14783 10.8189 12.3613
O 10.4465 12.6762 10.1542
H 11.3756 12.3658 10.1159
H 10.0208 12.3587 9.33142
O 10.5044 8.1627 10.0846
H 10.4854 7.18322 10.1062
H 10.028 8.45239 10.891
O 14.3198 8.14616 12.366
H 13.9082 8.49443 11.5484
H 15.2436 8.47205 12.3592
O 14.2728 8.15376 16.8994
H 13.7836 8.46809 16.1117
H 13.7824 8.48209 17.681
O 14.2761 12.6667 16.9288
H 13.8476 12.3287 16.1153
H 15.2036 12.3538 16.8957
O 9.08999 9.01409 16.8482
H 9.556 8.72211 17.6598
H 9.12805 9.99356 16.8614
O 16.9439 9.01458 12.3488
H 17.398 8.72752 13.1681
H 16.9682 9.99376 12.3741
O 20.8429 11.8281 10.0858
H 20.8136 10.8483 10.0743
H 19.9084 12.1191 10.1083
O 22.1582 12.7413 12.3262
H 21.7152 12.3953 11.5243
H 23.0782 12.4065 12.2976
O 20.8631 11.8868 14.5983
H 20.8657 10.9071 14.5826
H 21.3283 12.1684 13.7829
O 18.2384 8.19856 14.6424
H 17.7489 8.47263 15.4446
H 18.2406 7.21809 14.657
O 18.2474 12.7135 14.6918
H 19.1762 12.4063 14.6382
H 17.8102 12.3797 13.8813
O 20.8388 9.08788 10.0841
H 21.2971 8.74022 9.2921
H 19.9289 8.72556 10.0559
O 20.818 9.13291 14.57
H 21.2697 8.7774 15.3629
H 19.897 8.80097 14.6188
O 16.8874 11.7809 16.9014
H 17.3894 12.1027 16.1246
H 17.3707 12.113 17.6863
O 16.9847 11.7698 12.4288
H 16.0592 12.0903 12.4033
H 17.4038 12.1046 11.6088
O 18.206 12.681 10.1426
H 18.2026 13.6606 10.1151
H 17.7447 12.3891 9.32995
O 18.2596 8.13014 10.0851
H 18.244 7.15088 10.1237
H 17.8017 8.43311 10.8965
O 22.1432 8.19637 12.3519
H 21.6456 8.53832 13.1236
H 21.6687 8.52077 11.559
O 22.1014 8.16572 16.8112
H 23.0314 8.47226 16.8359
H 22.1511 7.18783 16.8319
O 22.1385 12.7486 16.8926
H 22.1301 13.7279 16.8608
H 21.6938 12.456 16.0709
O 16.8786 9.02136 16.9075
H 15.9401 8.74055 16.8991
H 16.8647 10.0007 16.9058
O 24.765 9.06392 12.327
H 23.8354 8.75756 12.3497
H 25.1836 8.70841 13.1388
O 28.6543 11.8014 10.0947
H 29.1073 12.141 9.29588
H 27.7375 12.1438 10.0536
O 29.9646 12.6767 12.3581
H 29.4676 12.3407 13.1322
H 29.486 12.3535 11.5671
O 28.6264 11.7468 14.587
H 29.0776 12.0782 15.3899
H 27.709 12.0905 14.6318
O 26.0052 8.13123 14.5951
H 25.5504 8.4331 15.4081
H 26.018 7.15372 14.6401
O 26.0487 12.6542 14.6258
H 26.0349 13.6344 14.6391
H 25.5731 12.3708 15.4344
O 28.6948 9.05167 10.0906
H 27.7591 8.75869 10.0905
H 28.6637 10.0314 10.0857
O 28.6354 9.00556 14.556
H 27.7016 8.71139 14.5661
H 28.6047 9.98554 14.571
O 24.7334 11.8009 16.8866
H 23.8171 12.1466 16.9086
H 25.1708 12.1465 17.6921
O 24.7665 11.8147 12.3217
H 25.2151 12.1018 13.143
H 24.7836 10.8351 12.3445
O 26.0521 12.7097 10.0613
H 26.0468 13.688 10.1198
H 25.6062 12.3974 10.8764
O 26.0962 8.17705 10.0818
H 25.6179 8.51496 9.29621
H 25.6028 8.49952 10.864
O 30.0091 8.14679 12.3271
H 29.5077 8.46202 13.1075
H 29.5217 8.47787 11.5439
O 29.9917 8.12187 16.7895
H 29.4895 8.44618 16.0138
H 29.5246 8.46217 17.5795
O 29.9334 12.6654 16.8568
H 29.9684 13.6443 16.8649
H 30.8673 12.3704 16.8463
O 24.7219 9.04126 16.8656
H 25.1982 8.7538 17.6709
H 24.7333 10.0205 16.8887
O 1.33304 16.2812 12.3939
H 0.39749 15.9929 12.3963
H 1.30809 17.2609 12.3708
O 5.23125 19.0922 10.0759
H 5.2557 18.1129 10.1072
H 5.69007 19.3924 10.8884
O 6.54101 19.9703 12.3307
H 6.50499 20.9488 12.374
H 6.10158 19.6564 13.148
O 5.27914 19.0835 14.6124
H 5.28224 18.1049 14.6581
H 5.73038 19.386 15.4269
O 2.6524 15.4069 14.6437