2304
Atoms. Timestep: 0
O 0.0178196 25.3363 25.4648
H 37.7378 24.7779 0.561679
H 0.562042 0.552621 0.556506
O 3.15844 3.17961 25.4865
H 3.76729 2.6317 24.9478
H 3.72945 3.75056 0.543798
O 3.20675 25.3451 3.15958
H 3.75271 24.79 2.56469
H 2.64296 0.549555 2.57823
O 0.0507005 3.22943 3.17741
H 37.7122 2.68332 3.72404
H 37.7301 3.78225 2.61995
O 1.5872 1.57792 1.58287
H 1.04674 2.17276 2.14281
H 2.13729 2.16393 1.02242
O 4.73713 4.80862 1.55741
H 5.29707 4.26051 2.14478
H 4.19567 5.36872 2.15158
O 4.77351 1.55921 4.76799
H 5.31544 2.13441 4.18945
H 4.22785 1.01254 4.16372
O 1.65191 4.78795 4.81011
H 1.09011 4.22196 4.24163
H 2.19776 4.17823 5.34897
O 6.41176 25.3404 25.4462
H 5.85196 24.7879 0.5328
H 6.95619 0.54388 0.548579
O 9.57993 3.18715 0.0612306
H 9.02332 3.72624 24.9589
H 10.1356 2.63046 24.9743
O 9.52682 0.0106262 3.18247
H 8.96567 24.8034 3.76402
H 10.0937 0.538841 3.78168
O 6.30642 3.20073 3.16416
H 6.89887 3.7339 3.73474
H 6.89921 2.65251 2.60824
O 7.92857 1.6111 1.61135
H 8.51043 1.06072 2.17519
H 8.52963 2.15637 1.06209
O 11.1797 4.76685 1.6379
H 10.5753 5.30894 2.18578
H 10.5984 4.22023 1.06874
O 11.1287 1.55186 4.81776
H 11.7076 2.10357 4.25222
H 11.7353 1.00638 5.36071
O 7.92469 4.72381 4.78206
H 8.50445 5.29334 4.23504
H 8.52484 4.17868 5.33183
O 12.7526 25.3393 0.03333
H 13.2903 24.7381 24.9742
H 12.1887 24.7609 0.586634
O 15.9934 3.14385 25.4489
H 15.4004 3.71142 24.9134
H 15.4006 2.59896 0.510034
O 15.9603 0.000282394 3.14249
H 16.5392 0.547091 3.71172
H 16.5628 24.7953 2.60289
O 12.7432 3.13705 3.22321
H 12.1841 3.69602 2.64549
H 13.2987 2.60122 2.62033
O 14.3498 1.61735 1.56617
H 14.9196 1.04043 2.11473
H 13.7963 1.01214 1.03022
O 17.5755 4.67428 1.61086
H 17.0218 4.13772 1.00684
H 18.1125 5.25712 1.03428
O 17.5773 1.55547 4.77794
H 18.1467 2.13195 4.22725
H 17.0245 2.16358 5.31081
O 14.3689 4.73986 4.75726
H 13.7779 4.17855 4.21335
H 13.7755 5.30779 5.2913
O 19.2137 25.2899 25.4541
H 18.6178 0.488185 24.9
H 18.627 24.7453 0.521712
O 22.3028 3.18776 25.4817
H 22.8997 2.64345 24.9279
H 22.8889 3.7328 0.54875
O 22.3228 25.3194 3.19799
H 21.7228 24.7784 3.75113
H 21.744 0.516767 2.62526
O 19.1956 3.14655 3.21576
H 18.6323 3.68644 2.62282
H 19.7399 2.58788 2.6229
O 20.7448 1.56051 1.5838
H 21.3021 2.11713 1.00145
H 20.2023 1.00527 0.986436
O 23.9231 4.74062 1.59555
H 23.3728 5.32054 2.161
H 24.4738 5.34532 1.05502
O 23.8692 1.59119 4.80463
H 24.4246 2.13776 4.21121
H 23.3196 1.03263 4.21697
O 20.7402 4.78771 4.79895
H 20.2053 4.19517 4.23062
H 21.267 4.19447 5.37318
O 25.5034 25.3107 25.4872
H 24.953 24.7599 0.584235
H 26.0593 0.515726 0.580299
O 28.6924 3.18763 0.0365333
H 29.2364 2.60211 24.9681
H 28.1454 2.59018 0.58637
O 28.6445 25.3399 3.25013
H 29.2456 0.55087 3.78607
H 29.2299 24.7838 2.69351
O 25.4816 3.12255 3.17519
H 26.0437 3.7129 3.71796
H 24.9421 3.7167 2.61199
O 27.086 1.53898 1.58429
H 26.5265 2.10058 2.16028
H 27.6346 0.998892 2.19033
O 30.2919 4.80541 1.6171
H 29.7385 4.23492 1.04517
H 30.8464 5.33835 1.00996
O 30.3142 1.55689 4.78949
H 30.8481 2.1623 4.23326
H 29.7543 2.13863 5.34457
O 27.0742 4.76711 4.72339
H 27.6657 5.32984 4.18203
H 27.6659 4.22303 5.28289
O 31.8465 0.0167081 0.0698973
H 32.4044 24.8155 24.9764
H 31.2848 0.553892 24.9702
O 35.0923 3.14678 0.00433571
H 34.5011 3.68213 24.9334
H 34.4968 2.6169 0.574507
O 35.0925 0.0164761 3.15462
H 35.6356 0.620188 3.70274
H 34.5143 0.596443 2.61801
O 31.8441 3.18944 3.21604
H 32.4132 3.77062 3.76235
H 31.3034 3.78662 2.65859
O 33.4635 1.62179 1.6166
H 32.8748 2.17164 2.17333
H 32.8704 1.06092 1.07446
O 36.6676 4.78215 1.57923
H 36.1167 4.21659 1.00028
H 37.2141 5.33175 0.980527
O 36.6534 1.66305 4.71918
H 36.097 2.19844 5.32312
H 37.1974 1.0909 5.29894
O 33.4542 4.77483 4.78788
H 34.0554 5.31707 4.23611
H 34.0358 4.21504 5.34224
O 38.2378 6.37339 25.4494
H 0.57131 5.81859 24.9064
H 0.557717 6.91582 0.520889
O 3.14395 9.49717 25.4285
H 3.69458 10.0504 0.522907
H 2.59474 8.94576 0.527484
O 3.19026 6.40052 3.19382
H 2.65466 5.8312 3.78429
H 3.74124 6.95068 3.78816
O 38.2533 9.49772 3.18744
H 0.531741 10.0564 3.78299
H 37.7012 8.94469 3.7766
O 1.58589 7.93576 1.56564
H 1.02667 8.48182 2.15641
H 2.14601 7.39485 2.16004
O 4.73684 11.0315 1.59094
H 4.20015 11.611 2.16995
H 5.28322 11.6359 1.04605
O 4.76284 7.97236 4.83708
H 5.35311 8.49478 4.25612
H 5.35267 7.40703 5.37828
O 1.54131 11.0864 4.79513
H 2.11011 10.5465 5.38244
H 0.990594 11.6374 5.38885
O 6.36427 6.31412 25.4111
H 5.77534 6.86889 24.8586
H 5.771 5.79125 0.492207
O 9.51066 9.51605 25.4699
H 10.1056 8.98006 24.9063
H 10.1029 10.0593 0.534416
O 9.50285 6.32176 3.19066
H 10.0592 6.92889 3.72123
H 8.94859 6.89344 2.62157
O 6.36986 9.4703 3.17166
H 5.79636 10.0153 2.59401
H 6.90644 8.9151 2.5678
O 7.93096 7.90312 1.54995
H 8.49017 8.46001 0.969272
H 7.39078 7.34753 0.951343
O 11.1186 11.0782 1.54936
H 11.7081 10.5324 2.10997
H 11.7124 11.6359 1.00424
O 11.0957 7.96533 4.72262
H 11.6909 8.51433 4.17158
H 11.6867 7.40899 5.27059
O 7.94327 11.0594 4.76315
H 7.39305 10.5062 4.1699
H 8.49309 11.6165 4.17376
O 12.7448 6.35639 0.0110951
H 12.1941 5.81328 0.611989
H 13.3111 6.90681 0.589139
O 15.9806 9.54746 0.0688846
H 15.4213 10.121 25.0017
H 16.5201 10.1527 0.617826
O 15.9803 6.31261 3.16689
H 15.4129 5.73637 3.71915
H 16.5325 5.70944 2.6286
O 12.7345 9.51861 3.15105
H 13.3129 10.0762 3.71188
H 13.339 8.95781 2.6214
O 14.3669 7.92533 1.61568
H 14.96 7.35779 2.15027
H 14.9545 8.48799 1.07099
O 17.5509 11.1922 1.64423
H 18.1372 10.6206 2.1823
H 18.1482 11.7248 1.07955
O 17.5735 7.93329 4.72096
H 16.9979 7.35888 4.17486
H 16.9663 8.46716 5.27558
O 14.3348 11.079 4.76931
H 14.8927 11.6823 4.23762
H 13.7722 11.6535 5.32828
O 19.1295 6.31477 0.044847
H 18.5791 6.91753 24.9989
H 19.6817 6.89496 0.607808
O 22.3378 9.50339 0.0453997
H 21.7708 10.0475 24.957
H 22.9 8.96804 24.9451
O 22.3585 6.36227 3.20085
H 21.804 5.80763 3.78719
H 22.9105 6.91471 3.79144
O 19.1557 9.58061 3.19759
H 18.5855 8.98507 3.7273
H 19.7138 8.99073 2.64983
O 20.7184 7.93392 1.63053
H 21.3096 7.38453 2.18527
H 21.3106 8.47794 1.07137
O 23.9577 11.1246 1.58913
H 23.3708 11.6731 2.15096
H 23.3645 10.5641 1.04827
O 23.9588 7.94244 4.80435
H 24.5057 8.52721 4.24012
H 23.411 8.53994 5.35384
O 20.7584 11.1503 4.79412
H 20.1718 10.5908 4.24342
H 20.1636 11.7031 5.34272
O 25.4989 6.36367 0.0530092
H 24.9623 6.94533 24.9741
H 26.0572 6.95927 0.594209
O 28.7702 9.47893 25.4599
H 28.2148 10.0382 24.8787
H 29.3047 8.91724 24.8613
O 28.6866 6.38288 3.19226
H 29.2821 6.91448 3.76049
H 29.2735 5.83494 2.63033
O 25.5281 9.55835 3.21377
H 24.9728 10.1086 2.62293
H 26.0836 9.00968 2.62212
O 27.1097 7.9856 1.59815
H 27.6885 7.42866 2.15946
H 27.712 8.5058 1.02878
O 30.3356 11.0312 1.60481
H 29.7952 10.4836 0.997631
H 30.8782 11.6099 1.02991
O 30.3305 7.89052 4.82073
H 30.8873 8.48129 4.27201
H 29.7728 8.47812 5.37109
O 27.1195 11.0905 4.831
H 26.5572 10.5511 4.23527
H 27.693 11.6223 4.24034
O 31.8837 6.32497 25.4781
H 32.4284 5.7499 24.9003
H 31.3411 6.87201 24.8732
O 35.006 9.49897 25.4825
H 35.5948 8.95383 24.9201
H 35.5996 10.0409 0.545119
O 35.0947 6.33402 3.22169
H 35.6427 5.79243 2.61644
H 34.5276 6.88353 2.64231
O 31.9243 9.48362 3.24422
H 31.372 10.031 2.6492
H 32.4602 8.91458 2.65309
O 33.464 7.88466 1.61406
H 34.0085 8.44512 1.02295
H 32.9109 7.33553 1.02078
O 36.6261 11.0632 1.58649
H 37.2154 10.5179 2.14615
H 37.2175 11.6166 1.03638
O 36.6768 7.91057 4.83324
H 36.1305 7.32961 4.26402
H 37.2342 7.31583 5.37508
O 33.5296 11.1014 4.80083
H 32.9705 10.5147 4.25047
H 34.0807 10.5062 5.35084
O 38.2524 12.6595 0.00974568
H 0.534718 12.1116 24.9065
H 37.6979 13.215 24.9208
O 3.11878 15.8254 0.00308411
H 3.69884 16.3658 0.57892
H 2.59288 15.2588 0.604405
O 3.22256 12.6608 3.23648
H 2.62882 12.1126 3.78819
H 2.62702 13.2043 2.67927
O 38.2404 15.7829 3.18451
H 0.538303 16.3641 3.73785
H 37.6906 16.3804 2.63535
O 1.60258 14.1941 1.63811
H 1.00248 14.7512 2.17592
H 1.02106 13.6555 1.06261
O 4.74872 17.394 1.56941
H 5.35405 16.8702 2.13373
H 5.32927 17.9464 1.00743
O 4.83284 14.3052 4.79898
H 4.26747 13.7236 4.25096
H 5.37907 13.7038 5.34633
O 1.58716 17.3824 4.75583
H 2.14707 16.8451 5.35264
H 1.0392 17.9431 5.34262
O 6.30581 12.6558 0.0329031
H 5.75859 13.2352 24.9604
H 6.85895 13.2563 0.576228
O 9.51593 15.8326 0.00291512
H 8.98105 16.3886 24.8963
H 10.0822 15.2782 24.9237
O 9.51302 12.6459 3.15808
H 10.0735 12.1029 2.56673
H 8.96117 13.2031 2.57165
O 6.4115 15.8949 3.17633
H 6.96209 16.4468 3.76944
H 5.86542 15.3342 3.76498
O 7.91929 14.2448 1.56855
H 7.40319 14.8478 2.14339
H 8.47471 14.8244 1.00654
O 11.142 17.4133 1.56373
H 10.5618 17.9626 2.13086
H 10.5428 16.8676 1.01306
O 11.0838 14.2178 4.80114
H 11.6403 14.7685 4.21323
H 10.5311 13.67 4.20656
O 7.99131 17.4629 4.79519
H 8.53717 16.9048 5.38687
H 7.43707 18.0146 5.38615
O 12.7304 12.6751 0.000524566
H 13.331 12.1344 24.9429
H 13.3162 13.2258 0.561432
O 15.9457 15.812 0.0149665
H 15.3922 16.4093 24.9673
H 16.5075 16.3983 0.562246
O 15.9188 12.7274 3.2167
H 16.4986 13.2894 3.77112
H 16.5252 12.1836 2.67061
O 12.6792 15.7958 3.18543
H 12.1365 16.3527 2.58966
H 13.2468 15.2526 2.60075
O 14.314 14.2469 1.58965
H 14.9042 13.7127 2.16203
H 14.9071 14.8049 1.04453
O 17.5183 17.4403 1.59088
H 18.1141 16.8981 2.14886
H 18.1055 17.9932 1.03611
O 17.5361 14.3027 4.80607
H 18.0923 14.8855 4.25027
H 16.9738 14.8933 5.34777
O 14.2519 17.3993 4.78923
H 13.7054 16.8413 4.19881
H 14.8151 17.9454 4.20189
O 19.191 12.704 0.0257515
H 19.7293 12.1323 24.9367
H 18.6244 13.2411 24.9314
O 22.3452 15.8208 25.4556
H 21.7898 16.4128 24.9078
H 22.8984 16.4079 0.514202
O 22.3691 12.6947 3.19121
H 21.7753 12.1547 3.75309
H 21.7805 13.2507 2.63902
O 19.1302 15.8811 3.18436
H 19.7377 16.4081 3.74364
H 19.7088 15.3131 2.63398
O 20.7524 14.2854 1.62561
H 21.3118 14.8274 1.03271
H 20.2028 13.7322 1.03162
O 23.9149 17.418 1.56428
H 24.5099 16.8558 2.10193
H 24.5058 17.9849 1.02511
O 24.0023 14.2599 4.74091
H 23.4037 13.7104 4.19255
H 23.4154 14.8005 5.30765
O 20.7968 17.3889 4.7793
H 21.3461 16.8331 5.37102
H 20.2341 17.9334 5.36672
O 25.5714 12.6574 25.474
H 24.9782 13.208 24.9232
H 24.9787 12.1146 0.538435
O 28.7588 15.8659 0.0157155
H 29.3102 15.2893 24.9443
H 28.2046 15.2584 0.54808
O 28.7451 12.604 3.20819
H 29.2996 12.0466 2.62354
H 28.2051 13.1605 2.60915
O 25.5714 15.8163 3.10043
H 26.1236 16.3664 3.6923
H 25.0104 15.2746 3.69382
O 27.2019 14.1947 1.55832
H 26.6172 14.7549 2.10913
H 26.6011 13.655 1.00248
O 30.3134 17.4637 1.61975
H 30.8556 16.8768 2.1849
H 29.763 16.8686 1.06898
O 30.2753 14.2278 4.83473
H 29.7459 13.6367 4.26135
H 30.8402 13.6399 5.3783
O 27.1139 17.4016 4.7678
H 27.7034 17.9754 4.23532
H 27.7043 16.8576 5.32822
O 31.8907 12.6698 0.022873
H 31.3451 13.2568 24.9563
H 32.4304 13.2631 0.584101
O 35.0602 15.8139 25.4858
H 35.6245 16.3583 0.574998
H 34.4968 15.2822 0.588852
O 35.0672 12.71 3.19689
H 34.5325 12.1116 3.7602
H 35.612 12.125 2.6323
O 31.8595 15.8399 3.24394
H 32.4047 16.394 3.83964
H 31.3065 15.2812 3.82754
O 33.4532 14.2974 1.61698
H 32.9018 14.8382 2.22033
H 34.0065 13.7309 2.19359
O 36.6538 17.3745 1.62219
H 36.0933 17.9569 2.17711
H 37.1919 17.9743 1.06442
O 36.6485 14.2711 4.83691
H 37.2032 14.8112 4.23613
H 36.0936 13.7164 4.25025
O 33.4302 17.4276 4.86763
H 34.0108 17.9669 4.29339
H 34.032 16.8817 5.41453
O 38.2191 18.9966 0.0453259
H 37.6815 19.5944 24.9813
H 0.513454 19.5808 0.598374
O 3.20978 22.125 25.4818
H 2.62827 22.6932 24.9341
H 2.61292 21.5981 0.554589
O 3.16973 18.9949 3.1791
H 2.61932 18.3994 3.7291
H 3.7133 18.4129 2.60862
O 38.2605 22.1733 3.24119
H 0.549228 22.7724 3.78447
H 37.7148 22.7545 2.67129
O 1.5696 20.6051 1.60529
H 1.03126 21.1571 2.2088
H 2.12503 20.0405 2.18102
O 4.79871 23.7757 1.54941
H 5.33825 23.1898 2.12041
H 4.25243 23.1789 0.99856
O 4.78422 20.5787 4.74661
H 4.2289 19.9773 4.20768
H 5.34075 20.0069 5.31346
O 1.58521 23.8126 4.79257
H 2.17115 24.3529 4.22474
H 2.1825 23.2529 5.33069
O 6.38263 18.9673 25.467
H 5.82223 19.5542 24.9186
H 6.9252 19.5605 0.530159
O 9.55494 22.1682 0.00908999
H 8.99865 22.7066 24.9062
H 10.1182 21.6193 24.9208
O 9.5565 19.0079 3.14852
H 9.00346 18.4685 3.75147
H 10.1129 19.5665 3.7312
O 6.35127 22.1874 3.16615
H 5.79947 21.591 3.71389
H 6.91145 21.6024 2.61438
O 7.93283 20.5826 1.57683
H 8.52318 20.0287 2.12811
H 8.52537 21.137 1.0284
O 11.1354 23.7488 1.60752
H 10.5451 24.3078 2.15347
H 10.5491 23.2034 1.04316
O 11.125 20.6061 4.74714
H 10.5645 21.1522 5.33756
H 11.6756 20.0563 5.34159
O 7.9248 23.7779 4.77073
H 7.37859 23.189 4.20965
H 8.47535 23.1874 5.32467
O 12.7464 19.014 0.0163998
H 12.1618 19.5653 24.9539
H 12.1494 18.4568 0.558704
O 15.9804 22.1591 0.0283282
H 15.3771 22.7033 24.9785
H 15.3944 21.5971 0.578024
O 15.8862 18.9682 3.21871
H 16.4577 18.4348 2.62901
H 15.3534 19.5384 2.6267
O 12.7598 22.1733 3.15802
H 12.178 21.6308 3.72894
H 12.156 22.7228 2.6156
O 14.3655 20.5862 1.58647
H 13.7752 21.1406 2.13858
H 13.7712 20.0361 1.03498
O 17.5988 23.7553 1.57896
H 18.1385 23.1613 2.13892
H 17.0235 23.1697 1.04427
O 17.5584 20.5166 4.79884
H 16.9619 19.977 4.24061
H 16.9691 21.087 5.3366
O 14.3675 23.7615 4.74846
H 13.8013 23.2201 4.16101
H 14.9283 24.3061 4.15832
O 19.1552 18.9944 25.4843
H 18.5985 19.5883 24.9387
H 19.7126 19.5806 0.538696
O 22.3654 22.1563 0.00432303
H 22.9172 22.7087 0.596413
H 21.8018 21.6113 0.593426
O 22.3383 19.0111 3.17965
H 21.8011 18.4124 3.73853
H 22.8909 18.4313 2.61599
O 19.1455 22.118 3.19225
H 19.6765 22.6864 3.78907
H 18.5895 21.5611 3.77462
O 20.7509 20.5987 1.57627
H 20.1937 21.1334 2.18025
H 21.2968 20.0282 2.15554
O 23.9372 23.7376 1.61817
H 24.4882 23.1887 2.21526
H 23.3705 24.2854 2.20015
O 23.8916 20.5996 4.81023
H 23.3517 20.0198 4.23286
H 24.4432 19.9969 5.35117
O 20.6899 23.7433 4.77592
H 21.2585 23.2011 5.36142
H 20.1432 24.2961 5.37219
O 25.5194 19.0236 0.023857
H 26.1143 18.4761 24.967
H 26.1034 19.5795 0.579178
O 28.6682 22.2248 25.4906
H 29.2188 22.7734 0.589088
H 28.1221 21.6648 0.584669
O 28.7107 19.0366 3.22647
H 29.3091 19.5838 3.77512
H 29.2924 18.4906 2.65791
O 25.5097 22.1696 3.22703
H 26.0487 22.7276 3.82562
H 24.9492 21.6149 3.8081
O 27.1206 20.6259 1.61012
H 26.5561 21.1624 2.20451
H 27.6811 20.079 2.19732
O 30.2407 23.7813 1.65363
H 30.8395 23.2152 2.18344
H 30.8256 24.3343 1.09486
O 30.3433 20.6251 4.79698
H 29.7663 21.1724 5.36963
H 30.881 20.0776 5.40665
O 27.0667 23.755 4.85137
H 27.6236 24.3351 4.2914
H 26.5217 24.3554 5.40041
O 31.9317 18.9947 25.4931
H 31.3362 19.554 24.9536
H 31.3454 18.4475 0.558366
O 35.0867 22.2308 0.0231698
H 34.4823 22.7738 24.9742
H 34.508 21.6509 0.561439
O 35.0604 18.952 3.20606
H 35.6183 19.5511 3.74542
H 34.5138 19.5352 2.64096
O 31.8956 22.1618 3.14434
H 32.4727 22.7103 3.71431
H 31.3525 21.6236 3.75761
O 33.5232 20.5848 1.57056
H 32.9221 21.1252 2.12384
H 32.9407 20.023 1.01702
O 36.7215 23.7698 1.61131
H 36.132 24.3418 2.14546
H 36.1251 23.2235 1.05789
O 36.6537 20.5465 4.76459
H 37.2202 21.1437 4.23246
H 36.1083 21.1338 5.32809
O 33.501 23.7482 4.72827
H 34.0875 24.3088 4.17954
H 34.0921 23.2097 5.29396
O 38.2131 0.0581086 6.33678
H 0.526202 24.8292 5.79336
H 37.6793 24.7973 6.88874
O 3.20995 3.15262 6.37585
H 3.75066 2.55942 5.81477
H 2.64541 2.56867 6.92382
O 3.19564 0.0107981 9.60541
H 3.73828 24.7967 9.01139
H 2.64223 0.560698 9.0137
O 38.2578 3.14198 9.54089
H 0.55133 3.67655 10.1426
H 37.7022 2.58204 10.1223
O 1.60403 1.56637 7.95119
H 1.02227 2.12285 8.50967
H 1.00056 1.03024 7.3962
O 4.79045 4.76631 7.94177
H 5.34013 4.18472 8.50674
H 4.24221 4.16695 7.39438
O 4.8217 1.58699 11.18
H 4.2612 1.00681 10.6247
H 5.3788 0.991633 11.7225
O 1.57289 4.70186 11.1949
H 2.15686 5.24695 10.628
H 2.1704 4.15544 11.7462
O 6.33553 25.3449 6.38979
H 6.89013 24.7864 5.80618
H 5.78868 0.546864 5.78877
O 9.56408 3.19186 6.38554
H 10.1261 2.59734 5.84684
H 9.00457 2.60266 6.93179
O 9.64261 0.0207393 9.50876
H 9.06482 24.8146 10.0758
H 9.03388 0.559846 8.96204
O 6.37705 3.15357 9.53138
H 6.94723 3.69565 10.1148
H 5.83631 2.60176 10.1332
O 7.97853 1.5615 7.9525
H 7.39462 2.11885 8.50819
H 7.37984 1.01821 7.39979
O 11.1813 4.79231 7.94822
H 10.5912 5.33257 8.51224
H 10.5898 4.22611 7.41057
O 11.2254 1.59023 11.1282
H 11.7701 2.15113 10.5379
H 10.6679 1.0433 10.5367
O 8.01587 4.67079 11.1603
H 8.55348 5.26982 10.6021
H 7.47169 5.25817 11.7247
O 12.7837 25.3456 6.36137
H 13.367 24.7986 5.79593
H 13.3788 0.557692 6.9026
O 16.0277 3.23066 6.33701
H 15.4156 3.75985 5.78395
H 15.455 2.66588 6.89539
O 15.9572 0.0135938 9.53348
H 15.3985 24.7787 10.0906
H 16.5009 24.7583 8.9838
O 12.7941 3.17541 9.50388
H 13.3227 3.77759 10.0679
H 12.2288 3.75688 8.95452
O 14.4112 1.61606 7.90067
H 13.8497 2.16604 8.48471
H 14.9521 1.0592 8.49739
O 17.5507 4.84774 7.98332
H 17.0058 4.28791 7.39209
H 18.11 5.39094 7.38882
O 17.5035 1.60324 11.1605
H 18.0663 2.16153 10.5858
H 16.9729 1.04358 10.5563
O 14.319 4.79455 11.1126
H 14.8812 5.39221 10.5776
H 13.7704 5.37434 11.6794
O 19.1046 25.2983 6.40087
H 18.5657 0.544361 5.83581
H 19.636 0.543531 6.97285
O 22.2467 3.13775 6.42519
H 22.8256 2.58783 5.85837
H 22.8521 3.69554 6.95736
O 22.2663 25.2947 9.57195
H 21.6811 24.7382 10.1267
H 21.6692 0.516449 9.04326
O 19.0918 3.21466 9.57953
H 19.6445 3.80376 10.133
H 18.553 3.80904 9.01766
O 20.64 1.55822 8.02282
H 20.1004 2.16813 8.56812
H 21.2149 2.12991 7.47352
O 23.8878 4.73519 7.93024
H 24.4702 4.20042 8.5086
H 24.4858 5.27911 7.37661
O 23.8751 1.56604 11.1457
H 23.3254 0.970826 10.5962
H 24.4341 0.983674 11.7002
O 20.6884 4.83881 11.1508
H 21.2814 5.3698 10.5794
H 21.2751 4.2586 11.679
O 25.4994 0.0577902 6.41013
H 24.9121 0.592651 5.83704
H 24.9017 24.8477 6.95349
O 28.7013 3.19565 6.32115
H 29.2514 3.72934 6.93093
H 28.1309 2.64881 6.89939
O 28.7061 0.027325 9.53605
H 29.2651 24.8266 8.94507
H 28.1523 0.583705 8.94994
O 25.4736 3.17944 9.55904
H 26.0171 3.72372 10.165
H 24.9133 2.61833 10.1324
O 27.1178 1.63147 7.95036
H 26.5353 2.17109 8.52264
H 26.5153 1.0817 7.406
O 30.2673 4.71872 8.00341
H 30.8621 4.16103 8.54729
H 30.8555 5.27072 7.44794
O 30.2528 1.58099 11.1817
H 30.8212 2.12881 10.6023
H 29.7098 1.03456 10.5761
O 27.0395 4.75229 11.2066
H 27.6319 5.28852 10.6397
H 27.6319 4.1944 11.7526
O 31.9153 25.3067 6.36793
H 32.4686 24.7672 5.76628
H 31.3693 0.533153 5.79039
O 35.063 3.18505 6.363
H 35.6191 3.72993 6.95761
H 34.5217 2.61706 6.94913
O 35.125 25.2858 9.53354
H 34.5617 24.7534 10.1322
H 35.6708 0.505425 10.119
O 31.8785 3.12858 9.55998
H 32.4672 3.67459 10.1207
H 32.4717 2.5703 9.01619
O 33.5153 1.5622 7.97908
H 34.076 0.968154 8.51879
H 32.9647 0.977965 7.41979
O 36.6479 4.74517 7.98254
H 37.2284 4.18833 8.54201
H 37.2514 5.28896 7.4343
O 36.6776 1.54353 11.1252
H 36.1149 2.09506 11.7078
H 37.231 1.00284 11.7278
O 33.5013 4.69138 11.1598
H 34.0532 5.28839 10.613
H 32.9384 5.2761 11.7085
O 0.00990111 6.30638 6.41657
H 0.612338 5.7666 5.86385
H 0.589494 6.87642 6.96348
O 3.15355 9.5433 6.40338
H 3.74619 8.99548 5.84663
H 3.74833 10.0915 6.95533
O 3.18236 6.28563 9.59891
H 3.73935 5.7537 8.99422
H 2.63229 6.85315 9.02135
O 0.0356096 9.53413 9.59285
H 37.7215 8.96819 10.1457
H 37.6944 10.0733 9.04257
O 1.61028 7.90352 7.99494
H 1.05832 8.49095 8.55058
H 2.15799 8.49857 7.44234
O 4.81834 11.091 7.96825
H 5.34809 10.5315 8.57242
H 4.26363 11.6571 8.54562
O 4.80779 7.84269 11.1955
H 4.21807 7.29124 10.6408
H 4.21594 8.41391 11.7277
O 1.65097 11.1327 11.1449
H 1.05923 10.5756 10.5976
H 1.05622 11.6783 11.7004
O 6.37757 6.36767 6.38122
H 6.92351 5.77315 5.82753
H 5.81778 5.77673 6.92774
O 9.49425 9.49212 6.37948
H 8.94676 10.0456 5.78321
H 10.0636 8.95741 5.78832
O 9.55299 6.32417 9.57399
H 10.1129 6.91412 10.1199
H 8.99532 6.91542 9.02728
O 6.35393 9.50296 9.62926
H 5.80813 8.89253 10.1671
H 6.91291 8.93298 9.06118
O 7.9448 7.9374 8.02056
H 8.48502 8.49105 7.41821
H 7.396 7.37476 7.43538
O 11.114 11.0742 7.95143
H 10.5265 11.6174 8.51676
H 10.5207 10.5241 7.3991
O 11.1503 7.95595 11.1229
H 10.6008 8.50639 11.718
H 11.707 7.40632 11.7129
O 7.95987 11.0827 11.2044
H 7.37634 10.518 10.656
H 7.35955 11.6337 11.7493
O 12.7323 6.35914 6.27825
H 12.1729 5.81432 6.86937
H 13.2917 6.89953 6.87478
O 15.946 9.45716 6.31116
H 15.3609 10.0347 5.77813
H 15.3477 8.91759 6.86813
O 15.9212 6.41639 9.56478
H 16.5167 6.96095 10.1193
H 16.5109 5.86951 9.00568
O 12.7521 9.51526 9.50917
H 12.1706 8.9722 10.0805
H 12.1511 10.0598 8.95893
O 14.3067 7.91596 7.90409
H 13.7516 8.47753 8.4845
H 14.8754 7.39431 8.50711
O 17.5408 11.0705 7.89494
H 18.0963 10.4933 8.45783
H 16.9915 10.4727 7.34798
O 17.5612 7.96079 11.1548
H 16.9882 8.49596 11.7423
H 18.1009 7.39912 11.7488
O 14.3386 11.0705 11.1342
H 13.7731 10.5339 10.5405
H 14.9017 11.6107 10.5419
O 19.1454 6.3906 6.36804
H 19.6981 5.82243 5.79209
H 18.5954 6.93162 5.7638
O 22.3848 9.58154 6.36853
H 21.7929 10.1358 5.81918
H 21.7934 9.02236 6.91493
O 22.3264 6.34888 9.53379
H 22.8723 5.79025 8.94371
H 21.7865 6.91292 8.94287
O 19.1324 9.50911 9.52074
H 19.69 10.0684 10.0991
H 18.5847 8.96835 10.1272
O 20.7781 7.97376 7.91874
H 20.1839 8.50043 8.49248
H 20.1869 7.42298 7.365
O 23.9688 11.1194 8.01647
H 23.4053 10.5838 7.42043
H 24.5288 11.6669 7.42655
O 23.8773 7.93549 11.1618
H 23.3393 7.34959 10.5898
H 24.4296 7.34405 11.7143
O 20.7263 11.0838 11.1597
H 21.3353 11.6308 10.6214
H 21.3027 10.5244 11.7197
O 25.5229 6.3238 6.38992
H 26.0743 5.78705 5.78362
H 24.9754 6.8957 5.81332
O 28.7387 9.50137 6.40131
H 28.1434 10.0499 5.85052
H 28.1523 8.9441 6.95412
O 28.6835 6.29126 9.61641
H 29.2405 5.74023 9.02871
H 28.1418 6.85069 9.02298
O 25.5424 9.48167 9.57436
H 24.9381 8.94786 10.1297
H 24.9658 10.0527 9.02594
O 27.1422 7.90264 7.9819
H 26.5501 8.44672 8.54218
H 26.554 7.35186 7.42486
O 30.2943 11.0804 8.02532
H 29.7422 10.5304 7.43117
H 30.8615 11.6217 7.43784
O 30.2623 7.92101 11.1766
H 29.7094 7.32649 10.6286
H 30.8275 7.33429 11.7206
O 27.1284 11.0485 11.2055
H 26.5754 10.4995 10.6128
H 27.6804 11.6055 10.6172
O 31.8841 6.30821 6.44022
H 32.4451 5.77445 5.83934
H 31.3317 6.86764 5.8552
O 35.0916 9.502 6.3918
H 35.6491 8.90261 5.85185
H 34.5347 8.9219 6.95056
O 35.0914 6.326 9.61253
H 35.6387 5.77504 9.01498
H 34.5358 6.88076 9.02752
O 31.8992 9.46404 9.58491
H 31.3001 8.91843 10.1359
H 31.3155 10.0319 9.0407
O 33.5096 7.89983 7.99437
H 32.9198 8.45095 8.55049
H 32.9165 7.34364 7.44755
O 36.6289 11.0852 8.04097
H 36.0945 10.5272 7.43961
H 37.1794 11.6486 7.45848
O 36.6936 7.93578 11.173
H 36.1358 7.35049 10.6201
H 37.2498 7.33842 11.7148
O 33.4811 11.0651 11.1827
H 32.9255 10.4762 10.632
H 34.0404 10.4754 11.7299
O 38.2176 12.6526 6.42683
H 37.6749 13.242 5.8637
H 0.519838 13.2437 6.96461
O 3.19915 15.8577 6.40554
H 3.79484 15.3137 5.85007
H 3.78622 16.414 6.95664
O 3.22644 12.6918 9.52117
H 2.66454 12.1467 10.1114
H 3.76835 13.2512 10.1155
O 38.262 15.8458 9.60288
H 37.7061 15.2512 10.1466
H 0.543417 15.2655 9.03253
O 1.57024 14.2712 7.96594
H 2.16722 13.715 8.5072
H 2.16027 14.8311 7.41933
O 4.82472 17.4514 7.98418
H 5.36721 16.8965 8.58129
H 4.26475 18.006 8.5656
O 4.75347 14.2831 11.1681
H 5.35849 14.8302 10.6247
H 5.32903 13.7248 11.7306
O 1.59525 17.4829 11.1252
H 1.03734 16.8756 10.5961
H 2.15222 16.9081 11.6913
O 6.39969 12.6786 6.36981
H 6.93959 12.0852 5.8078
H 5.85099 12.0923 6.93095
O 9.55868 15.8666 6.41597
H 10.089 15.2753 5.8433
H 8.99712 15.2745 6.95948
O 9.51393 12.643 9.5547
H 8.96463 12.1008 10.157
H 10.0742 13.1987 10.1347
O 6.3811 15.8469 9.60533
H 6.98365 16.3964 10.1488
H 6.95596 15.3 9.03141
O 7.96277 14.2771 7.97044
H 8.50373 13.6802 8.52821
H 7.41112 13.6921 7.41021
O 11.1397 17.4507 7.99178
H 11.693 16.8612 8.54424
H 10.581 16.8575 7.44608
O 11.0927 14.2484 11.1543
H 11.6762 14.8014 10.594
H 11.696 13.7022 11.7003
O 8.00711 17.4165 11.1803
H 8.56346 18.0032 10.6273
H 7.44992 18.0182 11.7164
O 12.7327 12.6538 6.38039
H 12.138 13.2011 5.82786
H 12.1422 12.0968 6.92872
O 15.9087 15.8841 6.38341
H 15.3056 16.4161 5.82415
H 15.3283 15.3075 6.92273
O 15.9048 12.6314 9.48812
H 16.4964 13.1807 10.0442
H 16.495 12.0808 8.93403
O 12.7126 15.8226 9.57243
H 13.3051 16.3768 10.1208
H 13.3017 15.2742 9.01357
O 14.3134 14.2743 7.95142
H 14.8808 13.6779 8.48209
H 13.7487 13.6872 7.40733
O 17.5287 17.4224 7.96832
H 16.9411 17.9755 8.52406
H 16.9284 16.8771 7.41775
O 17.497 14.1933 11.0862
H 18.087 14.7643 10.5526
H 18.0895 13.6441 11.6425
O 14.3487 17.4018 11.1423
H 14.9101 16.8402 11.7148
H 13.7957 17.9342 11.7515
O 19.1449 12.7086 6.37828
H 18.5574 13.2783 5.83965
H 18.5526 12.1314 6.90378
O 22.3692 15.794 6.36302
H 22.9274 16.3358 6.95963
H 21.8199 15.2337 6.94921
O 22.3984 12.6747 9.64653
H 22.958 12.1353 9.04957
H 21.8327 13.2143 9.0573
O 19.1403 15.8061 9.53514
H 19.6828 16.4075 10.0856
H 18.5756 16.3878 8.98671
O 20.795 14.2136 7.99502
H 20.2058 14.7794 8.53503
H 20.1979 13.6757 7.43579
O 23.9493 17.3635 7.964
H 24.5066 16.83 8.56925
H 23.4051 17.939 8.54082
O 23.9447 14.31 11.2466
H 23.3989 13.7217 10.6848
H 24.498 13.7139 11.7925
O 20.7023 17.4702 11.0928
H 21.2642 16.9289 11.6845
H 20.1466 18.0173 11.6862
O 25.54 12.6847 6.40092
H 26.1024 12.1287 5.82126
H 24.9954 13.23 5.79552
O 28.7263 15.8542 6.39354
H 29.2689 15.2451 5.84957
H 28.1619 15.2795 6.95107
O 28.7129 12.6423 9.62654
H 29.2695 12.1006 9.02804
H 28.1642 13.2051 9.04246
O 25.5354 15.8311 9.58367
H 26.0967 16.3863 10.1654
H 24.9869 15.2885 10.1875
O 27.1541 14.2459 7.99665
H 26.5685 14.799 8.553
H 26.5589 13.7049 7.43827
O 30.2662 17.4655 7.99647
H 30.8095 16.8779 8.56293
H 29.7331 16.8694 7.42945
O 30.3077 14.256 11.2091
H 29.7555 13.6656 10.6569
H 30.8754 13.6677 11.7506
O 27.1256 17.4145 11.1549
H 27.6846 16.8723 11.7484
H 26.5809 17.9806 11.7402
O 31.881 12.6383 6.39753
H 32.4852 12.098 5.84854
H 32.4557 13.2098 6.9485
O 35.0557 15.8526 6.43963
H 35.6384 15.3029 5.87578
H 35.6511 16.4038 6.98845
O 35.0258 12.696 9.60386
H 34.4773 12.0984 10.1538
H 35.5843 12.1098 9.05235
O 31.8344 15.8817 9.59613
H 31.3051 15.2833 10.1635
H 32.3952 15.299 9.04449
O 33.4203 14.2679 7.99824
H 34.0033 13.7166 8.56033
H 34.0182 14.8262 7.45974
O 36.6865 17.4512 7.99306
H 37.2375 16.8997 8.58471
H 36.1374 18.0099 8.58062
O 36.6567 14.2448 11.1846
H 36.0602 13.6932 10.6367
H 36.0702 14.8239 11.714
O 33.4585 17.5066 11.1365
H 32.8729 16.9367 10.5965
H 32.8601 18.0588 11.6813
O 0.0253233 18.9907 6.36409
H 37.6956 19.5295 5.80198
H 37.7021 18.4552 6.93658
O 3.22583 22.2114 6.32917
H 3.7694 21.6174 5.77191
H 2.66626 21.6214 6.87463
O 3.22926 19.0578 9.56457
H 2.6308 18.4986 10.102
H 2.64734 19.584 8.97683
O 0.0443172 22.1613 9.51236
H 0.591903 22.7206 10.1012
H 37.7548 21.6174 10.111
O 1.64892 20.5815 7.91013
H 1.06887 21.1397 8.46748
H 1.04742 20.0303 7.36634
O 4.75897 23.7799 8.00123
H 4.22505 23.217 7.40322
H 5.31566 24.3312 7.41168
O 4.79498 20.6478 11.1646
H 4.20739 20.0964 10.6065
H 4.20358 21.1902 11.7265
O 1.58452 23.748 11.162
H 2.14283 24.3387 10.615
H 1.0225 24.3349 11.7087
O 6.3926 19.0303 6.37943
H 5.84522 18.478 6.97667
H 6.93319 19.5994 6.96546
O 9.52998 22.1645 6.3435
H 10.0972 22.7229 6.91404
H 8.98217 21.628 6.9535
O 9.55013 19.0461 9.58596
H 10.1665 19.5769 10.1325
H 10.1178 18.4832 9.02019
O 6.39664 22.2328 9.60367
H 5.80269 21.684 10.1573
H 5.80753 22.7739 9.03862
O 7.95706 20.6283 7.99321
H 7.40949 21.185 8.58442
H 8.51846 20.0817 8.58145
O 11.1842 23.718 7.92972
H 10.6446 24.3187 8.48445
H 11.7448 24.3009 7.37854
O 11.2098 20.568 11.1494
H 11.8053 21.1084 10.5902
H 11.7846 20.0101 11.712
O 8.06228 23.7919 11.1138
H 7.45063 23.2417 10.5801
H 7.48574 24.3273 11.6969
O 12.699 19.0275 6.38401
H 13.2321 18.4355 5.81422
H 12.1503 18.4387 6.9442
O 15.9644 22.1511 6.31947
H 15.3831 22.7076 5.76125
H 15.3654 21.6057 6.87087
O 15.8809 19 9.52094
H 15.3376 18.4466 10.12
H 16.435 19.5539 10.1075
O 12.7854 22.1593 9.5479
H 12.2179 22.71 8.96931
H 13.3293 21.6145 8.94084
O 14.3348 20.6066 7.90081
H 14.8771 20.0211 8.46942
H 13.7654 20.0119 7.36833
O 17.5276 23.6994 7.98296
H 16.977 23.1571 7.38187
H 18.0755 24.2657 7.40004
O 17.4651 20.5755 11.1609
H 18.0574 21.1065 10.5888
H 18.0611 20.0266 11.7112
O 14.3537 23.7857 11.1157
H 13.8046 23.1942 10.56
H 14.8908 23.1937 11.682
O 19.1709 18.946 6.38344
H 18.5842 19.4932 5.82069
H 18.5696 18.4052 6.93768
O 22.3044 22.1926 6.38508
H 22.8636 21.61 5.82966
H 21.7621 21.5889 6.933
O 22.4054 19.0129 9.551
H 21.8008 18.4811 10.1088
H 21.8161 19.5471 8.97822
O 19.1179 22.0734 9.5347
H 19.6596 22.6661 10.0956
H 18.5653 22.6629 8.98068
O 20.7669 20.524 7.95476
H 20.1714 21.0717 8.50753
H 20.1783 19.9663 7.4039
O 23.8954 23.8094 7.94419
H 23.289 24.3261 8.51535
H 23.3199 23.2373 7.39513
O 23.9566 20.6428 11.1672
H 24.4968 21.2042 10.5738
H 23.4124 20.0796 10.5793
O 20.6534 23.7061 11.1444
H 21.2122 23.1646 11.739
H 20.0957 24.2582 11.7297
O 25.4856 18.9743 6.34393
H 26.0528 18.3958 5.79366
H 24.9557 18.3758 6.90996
O 28.7195 22.1825 6.38145
H 28.1235 22.7388 5.8373
H 28.1245 21.6247 6.9243
O 28.6219 19.0548 9.51769
H 28.0994 18.4551 10.0896
H 29.2011 18.4723 8.98318
O 25.5119 22.2405 9.53597
H 24.9464 22.791 8.9557
H 26.0424 21.6756 8.93677
O 27.0453 20.6258 7.91259
H 27.592 20.0412 8.47882
H 26.4995 20.0279 7.36139
O 30.2974 23.7806 7.97368
H 29.7421 23.2184 7.39429
H 30.8662 24.3065 7.37348
O 30.2328 20.6411 11.1112
H 29.6444 20.0937 10.5515
H 29.6434 21.1865 11.6746
O 27.1092 23.7959 11.1375
H 26.5526 23.2521 10.5414
H 27.6725 24.3424 10.5519
O 31.8806 19.0746 6.46767
H 32.4303 18.4813 5.91559
H 31.3155 18.4848 7.00881
O 35.0991 22.186 6.3385
H 35.6641 22.7311 6.92588
H 34.5376 21.654 6.93901
O 35.1226 19.0604 9.60032
H 34.5108 18.5152 10.1379
H 34.5475 19.6227 9.03969
O 31.8924 22.2166 9.59733
H 31.2831 21.6638 10.1301
H 31.3174 22.7689 9.02874
O 33.5271 20.657 8.023
H 32.9354 21.2073 8.57698
H 32.9334 20.0973 7.48084
O 36.703 23.7315 7.92387
H 37.27 23.1819 8.50487
H 36.1539 24.2776 8.52549
O 36.7449 20.6234 11.1668
H 36.1454 20.0733 10.6196
H 36.1594 21.1772 11.7241
O 33.5114 23.7708 11.1813
H 32.9187 23.2228 10.6257
H 32.9195 24.3304 11.7269
O 38.2566 25.345 12.7418
H 37.7099 24.7897 13.3359
H 0.556838 0.544975 13.3272
O 3.19566 3.14285 12.7712
H 3.78354 2.59025 12.2153
H 3.79236 3.6941 13.321
O 3.19119 25.34 15.9325