LAMMPS Description

         192  atoms
           2  atom types

         -11.7307 11.7307 xlo xhi
         -11.7307 11.7307 ylo yhi
         -11.7307 11.7307 zlo zhi

Masses

  2 15.9994
  1  1.0080

Atoms

   1          2  15.943800  22.264600 -14.446500
   2          1  16.016400  22.912600 -13.600000
   3          1  16.919100  22.025600 -14.686200
   4          2   3.519330  12.713300  -0.712458
   5          1   2.872600  13.413900  -0.974369
   6          1   3.908060  12.959800   0.269256
   7          2  -8.730720 -39.070000 -31.514900
   8          1  -7.947830 -38.769200 -32.044700
   9          1  -8.499940 -38.235000 -30.817200
  10          2  21.196700  -9.639450   5.929410
  11          1  21.066400 -10.077700   6.701200
  12          1  20.439100  -8.934200   5.852590
  13          2 -18.927300 -27.178000   6.451240
  14          1 -18.083400 -26.749700   6.508350
  15          1 -19.476900 -26.477300   6.245720
  16          2  -0.559321  -4.846020 -20.982700
  17          1  -0.792270  -4.911790 -21.883800
  18          1  -0.733803  -3.748470 -21.020900
  19          2  -9.133760   1.865320  -7.989800
  20          1  -8.869240   1.214080  -8.760840
  21          1  -8.750130   2.807680  -8.129650
  22          2 -15.902600  -3.141320  -0.125568
  23          1 -16.679400  -3.702220  -0.273113
  24          1 -15.256600  -3.799190   0.354938
  25          2  -0.227118   6.409630 -21.449300
  26          1   0.588702   5.766100 -21.474800
  27          1  -0.834242   5.815220 -21.595500
  28          2   6.614250   1.638620  -5.341780
  29          1   6.475960   0.675191  -4.920690
  30          1   6.514630   1.535870  -6.237620
  31          2  -9.107470 -12.238500  -1.449180
  32          1  -8.690420 -11.342700  -1.126900
  33          1  -8.779810 -12.410900  -2.371130
  34          2  19.154400  -4.767040  12.524200
  35          1  19.750300  -5.581210  12.964900
  36          1  18.911800  -4.230010  13.267700
  37          2 -22.467900  12.306600  -3.612580
  38          1 -21.870500  11.978500  -4.109810
  39          1 -22.584100  13.192500  -3.777980
  40          2  10.466800   2.131360  16.321800
  41          1  10.605400   1.925740  15.397300
  42          1   9.838710   1.473560  16.822500
  43          2 -20.485600  40.730500 -14.129900
  44          1 -20.155000  40.985900 -14.983800
  45          1 -19.963700  39.942000 -13.899600
  46          2  30.672400 -11.929400  14.460200
  47          1  31.596200 -11.951100  14.051500
  48          1  30.978700 -12.177600  15.516500
  49          2 -20.436600   4.904990   3.750990
  50          1 -20.784800   5.000980   2.751340
  51          1 -21.252800   4.621030   4.214220
  52          2   0.243645   3.461710   1.202050
  53          1  -0.200915   3.325160   2.114780
  54          1   0.076132   4.516310   1.324600
  55          2   7.927210  14.579800   8.557900
  56          1   8.072430  13.537900   8.198190
  57          1   7.164400  14.774900   9.063520
  58          2  -0.665034  -0.188244  -8.510960
  59          1  -0.610315   0.624369  -9.020480
  60          1  -1.095670   0.195884  -7.667600
  61          2  24.142700  21.389000 -20.219000
  62          1  25.079900  21.790500 -20.394300
  63          1  24.346100  20.390500 -19.958800
  64          2 -17.725100 -20.592500  14.896900
  65          1 -17.540500 -20.938400  13.965200
  66          1 -18.634200 -20.368600  15.015400
  67          2  26.002100   1.881190  -4.365290
  68          1  25.994200   1.070020  -4.947610
  69          1  26.412200   2.604400  -4.854710
  70          2  23.868900 -10.678900  20.284200
  71          1  23.363900  -9.876030  19.888300
  72          1  23.527200 -11.458300  19.805600
  73          2  -1.432690   2.179890   3.034330
  74          1  -1.965120   2.770040   3.304590
  75          1  -2.245530   1.513670   2.590850
  76          2   1.652150  35.847800  10.441300
  77          1   2.625580  36.066200  10.108000
  78          1   1.651670  35.657300  11.417400
  79          2  10.131100  17.949800   6.987750
  80          1  10.780300  18.274800   6.371290
  81          1  10.006700  17.109500   6.820310
  82          2  -5.304810  -0.074405  24.961100
  83          1  -6.083170  -0.329826  24.505700
  84          1  -4.830040   0.384944  24.331700
  85          2  -8.192280  30.286700  13.521500
  86          1  -7.023860  30.475000  13.423500
  87          1  -8.482820  29.435100  13.888400
  88          2 -11.652100  20.223900   8.650010
  89          1 -11.696700  19.329600   8.212670
  90          1 -10.803600  20.190800   8.862360
  91          2  12.564700   0.610559 -13.883600
  92          1  13.364600   0.228426 -14.487100
  93          1  12.006800   1.200220 -14.474400
  94          2  -8.124080  12.096800  47.940700
  95          1  -7.378970  12.700100  47.883900
  96          1  -8.689660  12.675900  48.396000
  97          2   9.936130 -10.635500  16.924100
  98          1  10.024100 -11.554900  16.633400
  99          1  10.437200 -10.057300  16.404000
 100          2  -4.698510  26.248300   8.151510
 101          1  -5.404110  25.517600   8.067930
 102          1  -4.679340  26.638800   7.299670
 103          2  13.467800  20.994600  -2.520830
 104          1  12.574800  21.253600  -2.018380
 105          1  14.115400  20.552800  -1.708330
 106          2 -10.929300   8.831220  14.302900
 107          1 -10.060000   8.287280  14.598200
 108          1 -11.642200   8.250880  13.952200
 109          2  11.203300   1.611400  -1.879230
 110          1  11.064100   1.773130  -2.827120
 111          1  12.223500   1.693710  -1.711320
 112          2 -12.271900  11.446500   8.292160
 113          1 -12.939800  10.853100   8.743150
 114          1 -11.600500  11.689200   8.840460
 115          2 -14.102200  29.167600  18.057100
 116          1 -14.362400  28.264600  17.788000
 117          1 -14.402300  29.743800  17.354700
 118          2   3.750260   0.467683  14.661500
 119          1   4.587540   0.119057  15.204600
 120          1   3.899920   0.315792  13.689300
 121          2  19.178800   0.657398  11.818200
 122          1  19.589900   0.294798  11.025100
 123          1  18.215300   0.469030  11.570500
 124          2  22.088200   0.828274  15.315300
 125          1  22.066200   1.673500  14.858000
 126          1  22.549300  -0.016398  14.646500
 127          2  15.693500  17.576100 -10.367400
 128          1  15.301100  17.385200 -11.242300
 129          1  15.324400  18.400000  -9.822200
 130          2  -4.850970  -9.002080  21.427400
 131          1  -5.032150  -9.287680  20.439000
 132          1  -5.704770  -9.058000  21.795700
 133          2  -8.593410  22.623300   3.269650
 134          1  -8.052850  23.063900   2.679060
 135          1  -9.365280  22.204500   2.791550
 136          2   1.783240  19.014800  -2.528740
 137          1   1.405620  18.042100  -2.534870
 138          1   2.494050  18.927300  -1.956650
 139          2  18.166000   2.055070  33.358000
 140          1  19.177600   2.528750  33.249100
 141          1  17.579400   2.879670  33.128100
 142          2  -7.368860   4.346280   7.350730
 143          1  -6.677440   3.606370   7.397800
 144          1  -7.462290   4.417500   6.300030
 145          2   4.525230  12.824000  17.657900
 146          1   3.488850  12.993700  17.930500
 147          1   4.507400  11.856700  17.518700
 148          2  22.064100  14.554700  11.115200
 149          1  22.107600  14.484700  12.112200
 150          1  21.487100  13.807400  10.768600
 151          2   3.574800  -0.505593  -6.408680
 152          1   2.514960  -0.911153  -6.696980
 153          1   3.636900   0.390690  -6.760740
 154          2 -24.300700 -20.822600  12.374000
 155          1 -23.667500 -19.880300  12.206800
 156          1 -24.974400 -20.471000  13.067800
 157          2  14.057300  -5.790990  35.384500
 158          1  13.281500  -6.198200  35.626800
 159          1  13.795000  -4.884610  34.980200
 160          2  -4.042210  22.134400  30.459600
 161          1  -4.465220  22.660200  29.699900
 162          1  -3.513950  22.704500  30.763900
 163          2  -4.478010  14.144700  11.275700
 164          1  -4.766330  14.503300  10.302600
 165          1  -4.351160  13.188400  11.138200
 166          2   4.681480   3.530420  33.449900
 167          1   5.547450   3.575570  32.997500
 168          1   4.530210   4.473590  33.692200
 169          2   2.635940   1.306190  20.809600
 170          1   2.998010   1.478820  19.838300
 171          1   1.547650   1.500730  20.713500
 172          2  -7.434960   9.408570  17.517800
 173          1  -7.546030  10.416300  17.595700
 174          1  -6.564680   9.351470  17.100000
 175          2   1.670730  10.942400   1.662670
 176          1   2.505950  10.774500   1.053250
 177          1   1.409990  10.073900   2.003570
 178          2  13.789000  12.929500   6.099400
 179          1  14.007300  13.819000   6.334440
 180          1  12.719200  12.939800   5.916520
 181          2  20.622200 -19.254300  10.473500
 182          1  19.933900 -19.660400  11.286700
 183          1  21.545600 -19.756300  10.454100
 184          2  -1.659330  32.492500   9.142790
 185          1  -1.763090  32.187200  10.053100
 186          1  -0.713845  32.770800   9.264700
 187          2  -4.692960  10.943300  14.834800
 188          1  -5.608990  10.589400  14.587100
 189          1  -4.920950  11.830000  15.399100
 190          2  36.425200  -2.084560  23.081000
 191          1  35.730500  -2.389970  22.466400
 192          1  35.785100  -1.320070  23.623000
